
Host: LenovoHugo

Timers On : Mon May 19 17:05:21 2025
Timers Off: Mon May 19 17:05:22 2025

Wall Time:        1.69 seconds

                                                       Time (seconds)
Module                                       User      System        Wall        Calls

--------------------------------------------------------------------------------------

**************************************************************************************

Host: LenovoHugo

Timers On : Mon May 19 17:08:14 2025
Timers Off: Mon May 19 17:08:16 2025

Wall Time:        1.75 seconds

                                                       Time (seconds)
Module                                       User      System        Wall        Calls

--------------------------------------------------------------------------------------

**************************************************************************************

Host: LenovoHugo

Timers On : Mon May 19 17:08:44 2025
Timers Off: Mon May 19 17:08:45 2025

Wall Time:        1.64 seconds

                                                       Time (seconds)
Module                                       User      System        Wall        Calls

--------------------------------------------------------------------------------------

**************************************************************************************

Host: LenovoHugo

Timers On : Mon May 19 17:09:56 2025
Timers Off: Mon May 19 17:09:57 2025

Wall Time:        1.81 seconds

                                                       Time (seconds)
Module                                       User      System        Wall        Calls

--------------------------------------------------------------------------------------

**************************************************************************************

Host: LenovoHugo

Timers On : Mon May 19 17:11:43 2025
Timers Off: Mon May 19 17:11:44 2025

Wall Time:        1.68 seconds

                                                       Time (seconds)
Module                                       User      System        Wall        Calls

--------------------------------------------------------------------------------------

**************************************************************************************

Host: LenovoHugo

Timers On : Mon May 19 17:38:52 2025
Timers Off: Mon May 19 17:38:53 2025

Wall Time:        1.16 seconds

                                                       Time (seconds)
Module                                       User      System        Wall        Calls

--------------------------------------------------------------------------------------

**************************************************************************************

Host: LenovoHugo

Timers On : Mon May 19 17:42:19 2025
Timers Off: Mon May 19 17:42:20 2025

Wall Time:        1.16 seconds

                                                       Time (seconds)
Module                                       User      System        Wall        Calls

--------------------------------------------------------------------------------------

**************************************************************************************

Host: LenovoHugo

Timers On : Mon May 19 17:44:10 2025
Timers Off: Mon May 19 17:44:11 2025

Wall Time:        1.12 seconds

                                                       Time (seconds)
Module                                       User      System        Wall        Calls

--------------------------------------------------------------------------------------

**************************************************************************************

Host: LenovoHugo

Timers On : Mon May 19 17:44:46 2025
Timers Off: Mon May 19 17:44:47 2025

Wall Time:        1.17 seconds

                                                       Time (seconds)
Module                                       User      System        Wall        Calls

--------------------------------------------------------------------------------------

**************************************************************************************

Host: LenovoHugo

Timers On : Mon May 19 17:46:13 2025
Timers Off: Mon May 19 17:46:15 2025

Wall Time:        1.71 seconds

                                                       Time (seconds)
Module                                       User      System        Wall        Calls

--------------------------------------------------------------------------------------

**************************************************************************************

Host: LenovoHugo

Timers On : Mon May 19 17:53:24 2025
Timers Off: Mon May 19 17:53:26 2025

Wall Time:        2.00 seconds

                                                       Time (seconds)
Module                                       User      System        Wall        Calls

--------------------------------------------------------------------------------------

**************************************************************************************

Host: LenovoHugo

Timers On : Mon May 19 17:55:44 2025
Timers Off: Mon May 19 17:55:46 2025

Wall Time:        1.75 seconds

                                                       Time (seconds)
Module                                       User      System        Wall        Calls

--------------------------------------------------------------------------------------

**************************************************************************************

Host: LenovoHugo

Timers On : Mon May 19 17:56:52 2025
Timers Off: Mon May 19 17:56:54 2025

Wall Time:        1.62 seconds

                                                       Time (seconds)
Module                                       User      System        Wall        Calls

--------------------------------------------------------------------------------------

**************************************************************************************

Host: LenovoHugo

Timers On : Mon May 19 17:58:57 2025
Timers Off: Mon May 19 17:58:59 2025

Wall Time:        1.63 seconds

                                                       Time (seconds)
Module                                       User      System        Wall        Calls

--------------------------------------------------------------------------------------

**************************************************************************************

Host: LenovoHugo

Timers On : Wed May 21 19:24:40 2025
Timers Off: Wed May 21 19:24:43 2025

Wall Time:        3.01 seconds

                                                       Time (seconds)
Module                                       User      System        Wall        Calls

--------------------------------------------------------------------------------------

**************************************************************************************

Host: LenovoHugo

Timers On : Wed May 21 19:27:01 2025
Timers Off: Wed May 21 19:27:02 2025

Wall Time:        1.81 seconds

                                                       Time (seconds)
Module                                       User      System        Wall        Calls

--------------------------------------------------------------------------------------

**************************************************************************************
