
Host: LenovoHugo

Timers On : Fri May 16 18:39:27 2025
Timers Off: Fri May 16 18:39:29 2025

Wall Time:        1.20 seconds

                                                       Time (seconds)
Module                                       User      System        Wall        Calls

--------------------------------------------------------------------------------------

**************************************************************************************
