
Host: LenovoHugo

Timers On : Fri May 16 18:39:27 2025
Timers Off: Fri May 16 18:39:29 2025

Wall Time:        1.20 seconds

                                                       Time (seconds)
Module                                       User      System        Wall        Calls

--------------------------------------------------------------------------------------

**************************************************************************************

Host: LenovoHugo

Timers On : Sat May 17 10:37:24 2025
Timers Off: Sat May 17 10:37:27 2025

Wall Time:        2.11 seconds

                                                       Time (seconds)
Module                                       User      System        Wall        Calls

--------------------------------------------------------------------------------------

**************************************************************************************

Host: LenovoHugo

Timers On : Sat May 17 10:48:25 2025
Timers Off: Sat May 17 10:48:26 2025

Wall Time:        1.43 seconds

                                                       Time (seconds)
Module                                       User      System        Wall        Calls

--------------------------------------------------------------------------------------

**************************************************************************************

Host: LenovoHugo

Timers On : Sat May 17 10:54:29 2025
Timers Off: Sat May 17 10:54:30 2025

Wall Time:        1.40 seconds

                                                       Time (seconds)
Module                                       User      System        Wall        Calls

--------------------------------------------------------------------------------------

**************************************************************************************

Host: LenovoHugo

Timers On : Sat May 17 10:56:23 2025
Timers Off: Sat May 17 10:56:24 2025

Wall Time:        1.44 seconds

                                                       Time (seconds)
Module                                       User      System        Wall        Calls

--------------------------------------------------------------------------------------

**************************************************************************************

Host: LenovoHugo

Timers On : Sat May 17 10:57:35 2025
Timers Off: Sat May 17 10:57:36 2025

Wall Time:        1.29 seconds

                                                       Time (seconds)
Module                                       User      System        Wall        Calls

--------------------------------------------------------------------------------------

**************************************************************************************

Host: LenovoHugo

Timers On : Sat May 17 11:00:16 2025
Timers Off: Sat May 17 11:00:17 2025

Wall Time:        1.42 seconds

                                                       Time (seconds)
Module                                       User      System        Wall        Calls

--------------------------------------------------------------------------------------

**************************************************************************************

Host: LenovoHugo

Timers On : Sat May 17 11:05:07 2025
Timers Off: Sat May 17 11:05:09 2025

Wall Time:        1.40 seconds

                                                       Time (seconds)
Module                                       User      System        Wall        Calls

--------------------------------------------------------------------------------------

**************************************************************************************

Host: LenovoHugo

Timers On : Sat May 17 11:13:20 2025
Timers Off: Sat May 17 11:13:22 2025

Wall Time:        1.40 seconds

                                                       Time (seconds)
Module                                       User      System        Wall        Calls

--------------------------------------------------------------------------------------

**************************************************************************************

Host: LenovoHugo

Timers On : Sat May 17 11:16:12 2025
Timers Off: Sat May 17 11:16:13 2025

Wall Time:        1.38 seconds

                                                       Time (seconds)
Module                                       User      System        Wall        Calls

--------------------------------------------------------------------------------------

**************************************************************************************

Host: LenovoHugo

Timers On : Sat May 17 11:17:41 2025
Timers Off: Sat May 17 11:17:43 2025

Wall Time:        1.37 seconds

                                                       Time (seconds)
Module                                       User      System        Wall        Calls

--------------------------------------------------------------------------------------

**************************************************************************************

Host: LenovoHugo

Timers On : Sat May 17 11:20:09 2025
Timers Off: Sat May 17 11:20:11 2025

Wall Time:        1.40 seconds

                                                       Time (seconds)
Module                                       User      System        Wall        Calls

--------------------------------------------------------------------------------------

**************************************************************************************

Host: LenovoHugo

Timers On : Sat May 17 11:22:14 2025
Timers Off: Sat May 17 11:22:15 2025

Wall Time:        1.41 seconds

                                                       Time (seconds)
Module                                       User      System        Wall        Calls

--------------------------------------------------------------------------------------

**************************************************************************************

Host: LenovoHugo

Timers On : Sat May 17 11:23:08 2025
Timers Off: Sat May 17 11:23:10 2025

Wall Time:        1.36 seconds

                                                       Time (seconds)
Module                                       User      System        Wall        Calls

--------------------------------------------------------------------------------------

**************************************************************************************

Host: LenovoHugo

Timers On : Sat May 17 11:37:06 2025
Timers Off: Sat May 17 11:37:08 2025

Wall Time:        1.46 seconds

                                                       Time (seconds)
Module                                       User      System        Wall        Calls

--------------------------------------------------------------------------------------

**************************************************************************************

Host: LenovoHugo

Timers On : Sat May 17 11:43:03 2025
Timers Off: Sat May 17 11:43:04 2025

Wall Time:        1.50 seconds

                                                       Time (seconds)
Module                                       User      System        Wall        Calls

--------------------------------------------------------------------------------------

**************************************************************************************

Host: LenovoHugo

Timers On : Sat May 17 12:11:02 2025
Timers Off: Sat May 17 12:11:03 2025

Wall Time:        1.49 seconds

                                                       Time (seconds)
Module                                       User      System        Wall        Calls

--------------------------------------------------------------------------------------

**************************************************************************************

Host: LenovoHugo

Timers On : Sat May 17 12:13:16 2025
Timers Off: Sat May 17 12:13:17 2025

Wall Time:        1.60 seconds

                                                       Time (seconds)
Module                                       User      System        Wall        Calls

--------------------------------------------------------------------------------------

**************************************************************************************
