
         ----------------------------------------------------------
                                   FINDIF
                     R. A. King and Jonathon Misiewicz
         ----------------------------------------------------------

  Using finite-differences of gradients to determine vibrational frequencies and 
  normal modes. Resulting frequencies are only valid at stationary points.
    Generating geometries for use with 3-point formula.
    Displacement size will be 5.00e-03.
    Number of atoms is 9.
    Number of irreps is 1.
    Number of SALCs is 24.
    Translations projected? 1. Rotations projected? 0.
    Index of SALCs per irrep:
      1 :  0  1  2  3  4  5  6  7  8  9  10  11  12  13  14  15  16  17  18  19  20  21  22  23 
    Number of SALCs per irrep:
      Irrep 1: 24
    Number of geometries (including reference) is 49.
    Number of displacements per irrep:
      Irrep 1: 48
 49 displacements needed ...

  //>>>>>>>>>>>>>>>>>>>>>>>>>>>>>>>>>>>//
  //    FiniteDifference Computations  //
  //<<<<<<<<<<<<<<<<<<<<<<<<<<<<<<<<<<<//


    -----------------------------------------------------------------------
          Psi4: An Open-Source Ab Initio Electronic Structure Package
                               Psi4 1.9.1 release

                         Git: Rev {} zzzzzzz 


    D. G. A. Smith, L. A. Burns, A. C. Simmonett, R. M. Parrish,
    M. C. Schieber, R. Galvelis, P. Kraus, H. Kruse, R. Di Remigio,
    A. Alenaizan, A. M. James, S. Lehtola, J. P. Misiewicz, M. Scheurer,
    R. A. Shaw, J. B. Schriber, Y. Xie, Z. L. Glick, D. A. Sirianni,
    J. S. O'Brien, J. M. Waldrop, A. Kumar, E. G. Hohenstein,
    B. P. Pritchard, B. R. Brooks, H. F. Schaefer III, A. Yu. Sokolov,
    K. Patkowski, A. E. DePrince III, U. Bozkaya, R. A. King,
    F. A. Evangelista, J. M. Turney, T. D. Crawford, C. D. Sherrill,
    J. Chem. Phys. 152(18) 184108 (2020). https://doi.org/10.1063/5.0006002

                            Additional Code Authors
    E. T. Seidl, C. L. Janssen, E. F. Valeev, M. L. Leininger,
    J. F. Gonthier, R. M. Richard, H. R. McAlexander, M. Saitow, X. Wang,
    P. Verma, M. H. Lechner, A. Jiang, S. Behnle, A. G. Heide,
    M. F. Herbst, and D. L. Poole

             Previous Authors, Complete List of Code Contributors,
                       and Citations for Specific Modules
    https://github.com/psi4/psi4/blob/master/codemeta.json
    https://github.com/psi4/psi4/graphs/contributors
    http://psicode.org/psi4manual/master/introduction.html#citing-psifour

    -----------------------------------------------------------------------


    Psi4 started on: Friday, 23 May 2025 12:11PM

    Process ID: 2872
    Host:       LAPTOP-FGPIQNI5
    PSIDATADIR: C:\Users\Anders Eggen\anaconda3\envs\rxn-insight\Library\share\psi4
    Memory:     1.9 GiB
    Threads:    1
    
  ==> Input QCSchema <==

--------------------------------------------------------------------------
{'driver': 'gradient',
 'extras': {'psiapi': True, 'wfn_qcvars_only': True},
 'id': None,
 'keywords': {'PARENT_SYMMETRY': 'C1',
              'SCF__D_CONVERGENCE': 1e-08,
              'SCF__E_CONVERGENCE': 1e-08,
              'SCF__INTS_TOLERANCE': 1e-12,
              'function_kwargs': {}},
 'model': {'basis': 'sto-3g', 'method': 'hf'},
 'molecule': {'atom_labels': ['', '', '', '', '', '', '', '', ''],
              'atomic_numbers': [6, 6, 8, 1, 1, 1, 1, 1, 1],
              'extras': {},
              'fix_com': True,
              'fix_orientation': True,
              'fragment_charges': [0.0],
              'fragment_multiplicities': [1],
              'fragments': [[0, 1, 2, 3, 4, 5, 6, 7, 8]],
              'geometry': [-2.477798731549213, 0.05986896691601321, -0.3025939006969148, 0.2726341752933518,
                           -0.9110809315974779, -0.4922431654360073, 2.0559030366398314, 0.6830912387987109,
                           0.78284540906464, -2.6705591334656043, 1.88369015603918, -1.225372403029621,
                           -3.7552793575158367, -1.2625426897002958, -1.2118897715681447, -3.032361725580928,
                           0.2634642224292073, 1.6619789740214272, 0.7772338094752463, -1.150135282470724,
                           -2.48922947734978, 0.4059451925644422, -2.76859125292221, 0.40387646554242146,
                           1.9028646826606435, 2.3281962168703214, -0.09969974803063562],
              'mass_numbers': [12, 12, 16, 1, 1, 1, 1, 1, 1],
              'masses': [12.0, 12.0, 15.99491461957, 1.00782503223, 1.00782503223, 1.00782503223, 1.00782503223,
                         1.00782503223, 1.00782503223],
              'molecular_charge': 0.0,
              'molecular_multiplicity': 1,
              'name': 'C2H6O',
              'provenance': {'creator': 'QCElemental',
                             'routine': 'qcelemental.molparse.from_string',
                             'version': '0.29.0'},
              'real': [True, True, True, True, True, True, True, True, True],
              'schema_name': 'qcschema_molecule',
              'schema_version': 2,
              'symbols': ['C', 'C', 'O', 'H', 'H', 'H', 'H', 'H', 'H'],
              'validated': True},
 'protocols': {'stdout': True},
 'provenance': {'creator': 'QCElemental', 'routine': 'qcelemental.models.results', 'version': '0.29.0'},
 'schema_name': 'qcschema_input',
 'schema_version': 1}
--------------------------------------------------------------------------

Scratch directory: C:\Users\ANDERS~1\AppData\Local\Temp/
gradient() will perform analytic gradient computation.
   => Libint2 <=

    Primary   basis highest AM E, G, H:  6, 6, -
    Auxiliary basis highest AM E, G, H:  7, 7, -
    Onebody   basis highest AM E, G, H:  -, -, -
    Solid Harmonics ordering:            Gaussian

*** tstart() called on LAPTOP-FGPIQNI5
*** at Fri May 23 12:11:24 2025

   => Loading Basis Set <=

    Name: STO-3G
    Role: ORBITAL
    Keyword: BASIS
    atoms 1-2 entry C          line    61 file C:\Users\Anders Eggen\anaconda3\envs\rxn-insight\Library\share\psi4\basis\sto-3g.gbs 
    atoms 3   entry O          line    81 file C:\Users\Anders Eggen\anaconda3\envs\rxn-insight\Library\share\psi4\basis\sto-3g.gbs 
    atoms 4-9 entry H          line    19 file C:\Users\Anders Eggen\anaconda3\envs\rxn-insight\Library\share\psi4\basis\sto-3g.gbs 


         ---------------------------------------------------------
                                   SCF
               by Justin Turney, Rob Parrish, Andy Simmonett
                          and Daniel G. A. Smith
                              RHF Reference
                        1 Threads,   1907 MiB Core
         ---------------------------------------------------------

  ==> Geometry <==

    Molecular point group: c1
    Full point group: C1

    Geometry (in Bohr), charge = 0, multiplicity = 1:

       Center              X                  Y                   Z               Mass       
    ------------   -----------------  -----------------  -----------------  -----------------
         C           -2.477798731549     0.059868966916    -0.302593900697    12.000000000000
         C            0.272634175293    -0.911080931597    -0.492243165436    12.000000000000
         O            2.055903036640     0.683091238799     0.782845409065    15.994914619570
         H           -2.670559133466     1.883690156039    -1.225372403030     1.007825032230
         H           -3.755279357516    -1.262542689700    -1.211889771568     1.007825032230
         H           -3.032361725581     0.263464222429     1.661978974021     1.007825032230
         H            0.777233809475    -1.150135282471    -2.489229477350     1.007825032230
         H            0.405945192564    -2.768591252922     0.403876465542     1.007825032230
         H            1.902864682661     2.328196216870    -0.099699748031     1.007825032230

  Running in c1 symmetry.

  Rotational constants: A =      1.13976  B =      0.29934  C =      0.26509 [cm^-1]
  Rotational constants: A =  34169.18443  B =   8974.01625  C =   7947.10289 [MHz]
  Nuclear repulsion =   80.973445539207859

  Charge       = 0
  Multiplicity = 1
  Electrons    = 26
  Nalpha       = 13
  Nbeta        = 13

  ==> Algorithm <==

  SCF Algorithm Type is DF.
  DIIS enabled.
  MOM disabled.
  Fractional occupation disabled.
  Guess Type is SAD.
  Energy threshold   = 1.00e-08
  Density threshold  = 1.00e-08
  Integral threshold = 1.00e-12

  ==> Primary Basis <==

  Basis Set: STO-3G
    Blend: STO-3G
    Number of shells: 15
    Number of basis functions: 21
    Number of Cartesian functions: 21
    Spherical Harmonics?: true
    Max angular momentum: 1

   => Loading Basis Set <=

    Name: (STO-3G AUX)
    Role: JKFIT
    Keyword: DF_BASIS_SCF
    atoms 1-2 entry C          line   198 file C:\Users\Anders Eggen\anaconda3\envs\rxn-insight\Library\share\psi4\basis\def2-universal-jkfit.gbs 
    atoms 3   entry O          line   318 file C:\Users\Anders Eggen\anaconda3\envs\rxn-insight\Library\share\psi4\basis\def2-universal-jkfit.gbs 
    atoms 4-9 entry H          line    18 file C:\Users\Anders Eggen\anaconda3\envs\rxn-insight\Library\share\psi4\basis\def2-universal-jkfit.gbs 

  ==> Integral Setup <==

  DFHelper Memory: AOs need 0.002 GiB; user supplied 1.397 GiB. 
  Using in-core AOs.

  ==> MemDFJK: Density-Fitted J/K Matrices <==

    J tasked:                   Yes
    K tasked:                   Yes
    wK tasked:                   No
    OpenMP threads:               1
    Memory [MiB]:              1430
    Algorithm:                 Core
    Schwarz Cutoff:           1E-12
    Mask sparsity (%):       0.4535
    Fitting Condition:        1E-10

   => Auxiliary Basis Set <=

  Basis Set: (STO-3G AUX)
    Blend: DEF2-UNIVERSAL-JKFIT
    Number of shells: 111
    Number of basis functions: 335
    Number of Cartesian functions: 391
    Spherical Harmonics?: true
    Max angular momentum: 4

  Minimum eigenvalue in the overlap matrix is 2.1281105923E-01.
  Reciprocal condition number of the overlap matrix is 8.7637382031E-02.
    Using symmetric orthogonalization.

  ==> Pre-Iterations <==

  SCF Guess: Superposition of Atomic Densities via on-the-fly atomic UHF (no occupation information).

   -------------------------
    Irrep   Nso     Nmo    
   -------------------------
     A         21      21 
   -------------------------
    Total      21      21
   -------------------------

  ==> Iterations <==

                           Total Energy        Delta E     RMS |[F,P]|

   @DF-RHF iter SAD:  -149.46840483640040   -1.49468e+02   0.00000e+00 
   @DF-RHF iter   1:  -152.07343714971427   -2.60503e+00   1.34544e-02 DIIS/ADIIS
   @DF-RHF iter   2:  -152.12982244965536   -5.63853e-02   3.51984e-03 DIIS/ADIIS
   @DF-RHF iter   3:  -152.13319368768003   -3.37124e-03   6.62211e-04 DIIS/ADIIS
   @DF-RHF iter   4:  -152.13339045375258   -1.96766e-04   7.28065e-05 DIIS
   @DF-RHF iter   5:  -152.13339306291252   -2.60916e-06   2.03112e-05 DIIS
   @DF-RHF iter   6:  -152.13339333297517   -2.70063e-07   3.69180e-06 DIIS
   @DF-RHF iter   7:  -152.13339334129756   -8.32239e-09   9.16452e-07 DIIS
   @DF-RHF iter   8:  -152.13339334175708   -4.59522e-10   1.42843e-07 DIIS
   @DF-RHF iter   9:  -152.13339334176763   -1.05445e-11   2.26612e-08 DIIS
   @DF-RHF iter  10:  -152.13339334176803   -3.97904e-13   4.22917e-09 DIIS
  Energy and wave function converged.


  ==> Post-Iterations <==

    Orbital Energies [Eh]
    ---------------------

    Doubly Occupied:                                                      

       1A    -20.256921     2A    -11.089735     3A    -11.042986  
       4A     -1.277463     5A     -0.966375     6A     -0.802514  
       7A     -0.621421     8A     -0.566950     9A     -0.543659  
      10A     -0.500970    11A     -0.474413    12A     -0.405663  
      13A     -0.351583  

    Virtual:                                                              

      14A      0.564722    15A      0.617961    16A      0.657608  
      17A      0.682423    18A      0.719328    19A      0.750960  
      20A      0.768112    21A      0.781316  

    Final Occupation by Irrep:
              A 
    DOCC [    13 ]
    NA   [    13 ]
    NB   [    13 ]

  @DF-RHF Final Energy:  -152.13339334176803

   => Energetics <=

    Nuclear Repulsion Energy =             80.9734455392078587
    One-Electron Energy =                -368.4123710360576638
    Two-Electron Energy =                 135.3055321550818064
    Total Energy =                       -152.1333933417680271

Computation Completed


Properties will be evaluated at   0.000000,   0.000000,   0.000000 [a0]

Properties computed using the SCF density matrix


 Multipole Moments:

 ------------------------------------------------------------------------------------
     Multipole            Electronic (a.u.)      Nuclear  (a.u.)        Total (a.u.)
 ------------------------------------------------------------------------------------

 L = 1.  Multiply by 2.5417464519 to convert [e a0] to [Debye]
 Dipole X            :          2.7781928           -3.1559196           -0.3777267
 Dipole Y            :          0.5024887           -0.3484605            0.1540282
 Dipole Z            :          1.0256274           -1.4665951           -0.4409677
 Magnitude           :                                                    0.6007118

 ------------------------------------------------------------------------------------

*** tstop() called on LAPTOP-FGPIQNI5 at Fri May 23 12:11:26 2025
Module time:
	user time   =        nan seconds =        nan minutes
	system time =        nan seconds =        nan minutes
	total time  =          2 seconds =       0.03 minutes
Total time:
	user time   =        nan seconds =        nan minutes
	system time =        nan seconds =        nan minutes
	total time  =         14 seconds =       0.23 minutes

*** tstart() called on LAPTOP-FGPIQNI5
*** at Fri May 23 12:11:26 2025


         ------------------------------------------------------------
                                   SCF GRAD                          
                          Rob Parrish, Justin Turney,                
                       Andy Simmonett, and Alex Sokolov              
         ------------------------------------------------------------

  ==> Geometry <==

    Molecular point group: c1
    Full point group: C1

    Geometry (in Bohr), charge = 0, multiplicity = 1:

       Center              X                  Y                   Z               Mass       
    ------------   -----------------  -----------------  -----------------  -----------------
         C           -2.477798731549     0.059868966916    -0.302593900697    12.000000000000
         C            0.272634175293    -0.911080931597    -0.492243165436    12.000000000000
         O            2.055903036640     0.683091238799     0.782845409065    15.994914619570
         H           -2.670559133466     1.883690156039    -1.225372403030     1.007825032230
         H           -3.755279357516    -1.262542689700    -1.211889771568     1.007825032230
         H           -3.032361725581     0.263464222429     1.661978974021     1.007825032230
         H            0.777233809475    -1.150135282471    -2.489229477350     1.007825032230
         H            0.405945192564    -2.768591252922     0.403876465542     1.007825032230
         H            1.902864682661     2.328196216870    -0.099699748031     1.007825032230

  Nuclear repulsion =   80.973445539207859

  ==> Basis Set <==

  Basis Set: STO-3G
    Blend: STO-3G
    Number of shells: 15
    Number of basis functions: 21
    Number of Cartesian functions: 21
    Spherical Harmonics?: true
    Max angular momentum: 1

  ==> DFJKGrad: Density-Fitted SCF Gradients <==

    Gradient:                    1
    J tasked:                  Yes
    K tasked:                  Yes
    wK tasked:                  No
    OpenMP threads:              1
    Integrals threads:           1
    Memory [MiB]:             1430
    Schwarz Cutoff:          1E-12
    Fitting Condition:       1E-10

   => Auxiliary Basis Set <=

  Basis Set: (STO-3G AUX)
    Blend: DEF2-UNIVERSAL-JKFIT
    Number of shells: 111
    Number of basis functions: 335
    Number of Cartesian functions: 391
    Spherical Harmonics?: true
    Max angular momentum: 4


  -Total Gradient:
     Atom            X                  Y                   Z
    ------   -----------------  -----------------  -----------------
       1       -0.000015964364     0.000007112397    -0.000028979972
       2        0.000009267815     0.000007391169    -0.000085946489
       3       -0.000020178099    -0.000030296658     0.000032722640
       4       -0.000012723962    -0.000029874897     0.000015913438
       5        0.000094638995     0.000061095044     0.000046141070
       6       -0.000006006605    -0.000001122137    -0.000016787114
       7       -0.000027860590    -0.000003747017     0.000060035435
       8        0.000013380420     0.000004352536    -0.000000072671
       9       -0.000034553611    -0.000014910438    -0.000023026336


*** tstop() called on LAPTOP-FGPIQNI5 at Fri May 23 12:11:26 2025
Module time:
	user time   =        nan seconds =        nan minutes
	system time =        nan seconds =        nan minutes
	total time  =          0 seconds =       0.00 minutes
Total time:
	user time   =        nan seconds =        nan minutes
	system time =        nan seconds =        nan minutes
	total time  =         14 seconds =       0.23 minutes

    Psi4 stopped on: Friday, 23 May 2025 12:11PM
    Psi4 wall time for execution: 0:00:01.41


    -----------------------------------------------------------------------
          Psi4: An Open-Source Ab Initio Electronic Structure Package
                               Psi4 1.9.1 release

                         Git: Rev {} zzzzzzz 


    D. G. A. Smith, L. A. Burns, A. C. Simmonett, R. M. Parrish,
    M. C. Schieber, R. Galvelis, P. Kraus, H. Kruse, R. Di Remigio,
    A. Alenaizan, A. M. James, S. Lehtola, J. P. Misiewicz, M. Scheurer,
    R. A. Shaw, J. B. Schriber, Y. Xie, Z. L. Glick, D. A. Sirianni,
    J. S. O'Brien, J. M. Waldrop, A. Kumar, E. G. Hohenstein,
    B. P. Pritchard, B. R. Brooks, H. F. Schaefer III, A. Yu. Sokolov,
    K. Patkowski, A. E. DePrince III, U. Bozkaya, R. A. King,
    F. A. Evangelista, J. M. Turney, T. D. Crawford, C. D. Sherrill,
    J. Chem. Phys. 152(18) 184108 (2020). https://doi.org/10.1063/5.0006002

                            Additional Code Authors
    E. T. Seidl, C. L. Janssen, E. F. Valeev, M. L. Leininger,
    J. F. Gonthier, R. M. Richard, H. R. McAlexander, M. Saitow, X. Wang,
    P. Verma, M. H. Lechner, A. Jiang, S. Behnle, A. G. Heide,
    M. F. Herbst, and D. L. Poole

             Previous Authors, Complete List of Code Contributors,
                       and Citations for Specific Modules
    https://github.com/psi4/psi4/blob/master/codemeta.json
    https://github.com/psi4/psi4/graphs/contributors
    http://psicode.org/psi4manual/master/introduction.html#citing-psifour

    -----------------------------------------------------------------------


    Psi4 started on: Friday, 23 May 2025 12:11PM

    Process ID: 2872
    Host:       LAPTOP-FGPIQNI5
    PSIDATADIR: C:\Users\Anders Eggen\anaconda3\envs\rxn-insight\Library\share\psi4
    Memory:     1.9 GiB
    Threads:    1
    
  ==> Input QCSchema <==

--------------------------------------------------------------------------
{'driver': 'gradient',
 'extras': {'psiapi': True, 'wfn_qcvars_only': True},
 'id': None,
 'keywords': {'PARENT_SYMMETRY': 'C1',
              'SCF__D_CONVERGENCE': 1e-08,
              'SCF__E_CONVERGENCE': 1e-08,
              'SCF__INTS_TOLERANCE': 1e-12,
              'function_kwargs': {'write_orbitals': False}},
 'model': {'basis': 'sto-3g', 'method': 'hf'},
 'molecule': {'atom_labels': ['', '', '', '', '', '', '', '', ''],
              'atomic_numbers': [6, 6, 8, 1, 1, 1, 1, 1, 1],
              'extras': {},
              'fix_com': True,
              'fix_orientation': True,
              'fragment_charges': [0.0],
              'fragment_multiplicities': [1],
              'fragments': [[0, 1, 2, 3, 4, 5, 6, 7, 8]],
              'geometry': [-2.4790398396205737, 0.05986896691601321, -0.3025939006969148, 0.27307167473523497,
                           -0.9110809315974779, -0.4922431654360073, 2.0563405360817146, 0.6830912387987109,
                           0.78284540906464, -2.670121634023721, 1.88369015603918, -1.225372403029621,
                           -3.7548418580739535, -1.2625426897002958, -1.2118897715681447, -3.031924226139045,
                           0.2634642224292073, 1.6619789740214272, 0.7776713089171294, -1.150135282470724,
                           -2.48922947734978, 0.4063826920063254, -2.76859125292221, 0.40387646554242146,
                           1.9033021821025267, 2.3281962168703214, -0.09969974803063562],
              'mass_numbers': [12, 12, 16, 1, 1, 1, 1, 1, 1],
              'masses': [12.0, 12.0, 15.99491461957, 1.00782503223, 1.00782503223, 1.00782503223, 1.00782503223,
                         1.00782503223, 1.00782503223],
              'molecular_charge': 0.0,
              'molecular_multiplicity': 1,
              'name': 'C2H6O',
              'provenance': {'creator': 'QCElemental',
                             'routine': 'qcelemental.molparse.from_string',
                             'version': '0.29.0'},
              'real': [True, True, True, True, True, True, True, True, True],
              'schema_name': 'qcschema_molecule',
              'schema_version': 2,
              'symbols': ['C', 'C', 'O', 'H', 'H', 'H', 'H', 'H', 'H'],
              'validated': True},
 'protocols': {'stdout': True},
 'provenance': {'creator': 'QCElemental', 'routine': 'qcelemental.models.results', 'version': '0.29.0'},
 'schema_name': 'qcschema_input',
 'schema_version': 1}
--------------------------------------------------------------------------

Scratch directory: C:\Users\ANDERS~1\AppData\Local\Temp/
gradient() will perform analytic gradient computation.
   => Libint2 <=

    Primary   basis highest AM E, G, H:  6, 6, -
    Auxiliary basis highest AM E, G, H:  7, 7, -
    Onebody   basis highest AM E, G, H:  -, -, -
    Solid Harmonics ordering:            Gaussian

*** tstart() called on LAPTOP-FGPIQNI5
*** at Fri May 23 12:11:26 2025

   => Loading Basis Set <=

    Name: STO-3G
    Role: ORBITAL
    Keyword: BASIS
    atoms 1-2 entry C          line    61 file C:\Users\Anders Eggen\anaconda3\envs\rxn-insight\Library\share\psi4\basis\sto-3g.gbs 
    atoms 3   entry O          line    81 file C:\Users\Anders Eggen\anaconda3\envs\rxn-insight\Library\share\psi4\basis\sto-3g.gbs 
    atoms 4-9 entry H          line    19 file C:\Users\Anders Eggen\anaconda3\envs\rxn-insight\Library\share\psi4\basis\sto-3g.gbs 


         ---------------------------------------------------------
                                   SCF
               by Justin Turney, Rob Parrish, Andy Simmonett
                          and Daniel G. A. Smith
                              RHF Reference
                        1 Threads,   1907 MiB Core
         ---------------------------------------------------------

  ==> Geometry <==

    Molecular point group: c1
    Full point group: C1

    Geometry (in Bohr), charge = 0, multiplicity = 1:

       Center              X                  Y                   Z               Mass       
    ------------   -----------------  -----------------  -----------------  -----------------
         C           -2.479039839621     0.059868966916    -0.302593900697    12.000000000000
         C            0.273071674735    -0.911080931597    -0.492243165436    12.000000000000
         O            2.056340536082     0.683091238799     0.782845409065    15.994914619570
         H           -2.670121634024     1.883690156039    -1.225372403030     1.007825032230
         H           -3.754841858074    -1.262542689700    -1.211889771568     1.007825032230
         H           -3.031924226139     0.263464222429     1.661978974021     1.007825032230
         H            0.777671308917    -1.150135282471    -2.489229477350     1.007825032230
         H            0.406382692006    -2.768591252922     0.403876465542     1.007825032230
         H            1.903302182103     2.328196216870    -0.099699748031     1.007825032230

  Running in c1 symmetry.

  Rotational constants: A =      1.13966  B =      0.29920  C =      0.26497 [cm^-1]
  Rotational constants: A =  34166.26836  B =   8969.75671  C =   7943.61598 [MHz]
  Nuclear repulsion =   80.964381939027234

  Charge       = 0
  Multiplicity = 1
  Electrons    = 26
  Nalpha       = 13
  Nbeta        = 13

  ==> Algorithm <==

  SCF Algorithm Type is DF.
  DIIS enabled.
  MOM disabled.
  Fractional occupation disabled.
  Guess Type is SAD.
  Energy threshold   = 1.00e-08
  Density threshold  = 1.00e-08
  Integral threshold = 1.00e-12

  ==> Primary Basis <==

  Basis Set: STO-3G
    Blend: STO-3G
    Number of shells: 15
    Number of basis functions: 21
    Number of Cartesian functions: 21
    Spherical Harmonics?: true
    Max angular momentum: 1

   => Loading Basis Set <=

    Name: (STO-3G AUX)
    Role: JKFIT
    Keyword: DF_BASIS_SCF
    atoms 1-2 entry C          line   198 file C:\Users\Anders Eggen\anaconda3\envs\rxn-insight\Library\share\psi4\basis\def2-universal-jkfit.gbs 
    atoms 3   entry O          line   318 file C:\Users\Anders Eggen\anaconda3\envs\rxn-insight\Library\share\psi4\basis\def2-universal-jkfit.gbs 
    atoms 4-9 entry H          line    18 file C:\Users\Anders Eggen\anaconda3\envs\rxn-insight\Library\share\psi4\basis\def2-universal-jkfit.gbs 

  ==> Integral Setup <==

  DFHelper Memory: AOs need 0.002 GiB; user supplied 1.397 GiB. 
  Using in-core AOs.

  ==> MemDFJK: Density-Fitted J/K Matrices <==

    J tasked:                   Yes
    K tasked:                   Yes
    wK tasked:                   No
    OpenMP threads:               1
    Memory [MiB]:              1430
    Algorithm:                 Core
    Schwarz Cutoff:           1E-12
    Mask sparsity (%):       0.4535
    Fitting Condition:        1E-10

   => Auxiliary Basis Set <=

  Basis Set: (STO-3G AUX)
    Blend: DEF2-UNIVERSAL-JKFIT
    Number of shells: 111
    Number of basis functions: 335
    Number of Cartesian functions: 391
    Spherical Harmonics?: true
    Max angular momentum: 4

  Minimum eigenvalue in the overlap matrix is 2.1282601419E-01.
  Reciprocal condition number of the overlap matrix is 8.7648777823E-02.
    Using symmetric orthogonalization.

  ==> Pre-Iterations <==

  SCF Guess: Superposition of Atomic Densities via on-the-fly atomic UHF (no occupation information).

   -------------------------
    Irrep   Nso     Nmo    
   -------------------------
     A         21      21 
   -------------------------
    Total      21      21
   -------------------------

  ==> Iterations <==

                           Total Energy        Delta E     RMS |[F,P]|

   @DF-RHF iter SAD:  -149.46811172443429   -1.49468e+02   0.00000e+00 
   @DF-RHF iter   1:  -152.07344667991788   -2.60533e+00   1.34532e-02 DIIS/ADIIS
   @DF-RHF iter   2:  -152.12982042060463   -5.63737e-02   3.52015e-03 DIIS/ADIIS
   @DF-RHF iter   3:  -152.13319251654247   -3.37210e-03   6.62318e-04 DIIS/ADIIS
   @DF-RHF iter   4:  -152.13338940037880   -1.96884e-04   7.28609e-05 DIIS
   @DF-RHF iter   5:  -152.13339201327562   -2.61290e-06   2.03244e-05 DIIS
   @DF-RHF iter   6:  -152.13339228356551   -2.70290e-07   3.70826e-06 DIIS
   @DF-RHF iter   7:  -152.13339229195014   -8.38463e-09   9.23776e-07 DIIS
   @DF-RHF iter   8:  -152.13339229241853   -4.68390e-10   1.43084e-07 DIIS
   @DF-RHF iter   9:  -152.13339229242925   -1.07150e-11   2.26512e-08 DIIS
   @DF-RHF iter  10:  -152.13339229242953   -2.84217e-13   4.23067e-09 DIIS
  Energy and wave function converged.


  ==> Post-Iterations <==

    Orbital Energies [Eh]
    ---------------------

    Doubly Occupied:                                                      

       1A    -20.256941     2A    -11.089698     3A    -11.042978  
       4A     -1.277454     5A     -0.966280     6A     -0.802554  
       7A     -0.621378     8A     -0.567010     9A     -0.543565  
      10A     -0.501039    11A     -0.474514    12A     -0.405665  
      13A     -0.351541  

    Virtual:                                                              

      14A      0.564883    15A      0.618048    16A      0.657356  
      17A      0.682181    18A      0.719385    19A      0.750951  
      20A      0.768358    21A      0.781292  

    Final Occupation by Irrep:
              A 
    DOCC [    13 ]
    NA   [    13 ]
    NB   [    13 ]

  @DF-RHF Final Energy:  -152.13339229242953

   => Energetics <=

    Nuclear Repulsion Energy =             80.9643819390272341
    One-Electron Energy =                -368.3943182166766519
    Two-Electron Energy =                 135.2965439852198699
    Total Energy =                       -152.1333922924295337

Computation Completed


Properties will be evaluated at   0.000000,   0.000000,   0.000000 [a0]

Properties computed using the SCF density matrix


 Multipole Moments:

 ------------------------------------------------------------------------------------
     Multipole            Electronic (a.u.)      Nuclear  (a.u.)        Total (a.u.)
 ------------------------------------------------------------------------------------

 L = 1.  Multiply by 2.5417464519 to convert [e a0] to [Debye]
 Dipole X            :          2.7770001           -3.1546162           -0.3776161
 Dipole Y            :          0.5025717           -0.3484605            0.1541112
 Dipole Z            :          1.0256699           -1.4665951           -0.4409252
 Magnitude           :                                                    0.6006324

 ------------------------------------------------------------------------------------

*** tstop() called on LAPTOP-FGPIQNI5 at Fri May 23 12:11:27 2025
Module time:
	user time   =        nan seconds =        nan minutes
	system time =        nan seconds =        nan minutes
	total time  =          1 seconds =       0.02 minutes
Total time:
	user time   =        nan seconds =        nan minutes
	system time =        nan seconds =        nan minutes
	total time  =         15 seconds =       0.25 minutes

*** tstart() called on LAPTOP-FGPIQNI5
*** at Fri May 23 12:11:27 2025


         ------------------------------------------------------------
                                   SCF GRAD                          
                          Rob Parrish, Justin Turney,                
                       Andy Simmonett, and Alex Sokolov              
         ------------------------------------------------------------

  ==> Geometry <==

    Molecular point group: c1
    Full point group: C1

    Geometry (in Bohr), charge = 0, multiplicity = 1:

       Center              X                  Y                   Z               Mass       
    ------------   -----------------  -----------------  -----------------  -----------------
         C           -2.479039839621     0.059868966916    -0.302593900697    12.000000000000
         C            0.273071674735    -0.911080931597    -0.492243165436    12.000000000000
         O            2.056340536082     0.683091238799     0.782845409065    15.994914619570
         H           -2.670121634024     1.883690156039    -1.225372403030     1.007825032230
         H           -3.754841858074    -1.262542689700    -1.211889771568     1.007825032230
         H           -3.031924226139     0.263464222429     1.661978974021     1.007825032230
         H            0.777671308917    -1.150135282471    -2.489229477350     1.007825032230
         H            0.406382692006    -2.768591252922     0.403876465542     1.007825032230
         H            1.903302182103     2.328196216870    -0.099699748031     1.007825032230

  Nuclear repulsion =   80.964381939027234

  ==> Basis Set <==

  Basis Set: STO-3G
    Blend: STO-3G
    Number of shells: 15
    Number of basis functions: 21
    Number of Cartesian functions: 21
    Spherical Harmonics?: true
    Max angular momentum: 1

  ==> DFJKGrad: Density-Fitted SCF Gradients <==

    Gradient:                    1
    J tasked:                  Yes
    K tasked:                  Yes
    wK tasked:                  No
    OpenMP threads:              1
    Integrals threads:           1
    Memory [MiB]:             1430
    Schwarz Cutoff:          1E-12
    Fitting Condition:       1E-10

   => Auxiliary Basis Set <=

  Basis Set: (STO-3G AUX)
    Blend: DEF2-UNIVERSAL-JKFIT
    Number of shells: 111
    Number of basis functions: 335
    Number of Cartesian functions: 391
    Spherical Harmonics?: true
    Max angular momentum: 4


  -Total Gradient:
     Atom            X                  Y                   Z
    ------   -----------------  -----------------  -----------------
       1       -0.001233887996    -0.000073088587    -0.000045523814
       2        0.000469053089    -0.000105635500    -0.000125525918
       3        0.000044504947    -0.000027000789     0.000049236729
       4        0.000119909486    -0.000074234538     0.000039416347
       5        0.000467713887     0.000322437413     0.000224036022
       6        0.000165306611    -0.000015306652    -0.000178667458
       7       -0.000011690636    -0.000014762236     0.000064509589
       8        0.000016877421     0.000005871975    -0.000003388013
       9       -0.000037786809    -0.000018281086    -0.000024093485


*** tstop() called on LAPTOP-FGPIQNI5 at Fri May 23 12:11:27 2025
Module time:
	user time   =        nan seconds =        nan minutes
	system time =        nan seconds =        nan minutes
	total time  =          0 seconds =       0.00 minutes
Total time:
	user time   =        nan seconds =        nan minutes
	system time =        nan seconds =        nan minutes
	total time  =         15 seconds =       0.25 minutes

    Psi4 stopped on: Friday, 23 May 2025 12:11PM
    Psi4 wall time for execution: 0:00:01.41


    -----------------------------------------------------------------------
          Psi4: An Open-Source Ab Initio Electronic Structure Package
                               Psi4 1.9.1 release

                         Git: Rev {} zzzzzzz 


    D. G. A. Smith, L. A. Burns, A. C. Simmonett, R. M. Parrish,
    M. C. Schieber, R. Galvelis, P. Kraus, H. Kruse, R. Di Remigio,
    A. Alenaizan, A. M. James, S. Lehtola, J. P. Misiewicz, M. Scheurer,
    R. A. Shaw, J. B. Schriber, Y. Xie, Z. L. Glick, D. A. Sirianni,
    J. S. O'Brien, J. M. Waldrop, A. Kumar, E. G. Hohenstein,
    B. P. Pritchard, B. R. Brooks, H. F. Schaefer III, A. Yu. Sokolov,
    K. Patkowski, A. E. DePrince III, U. Bozkaya, R. A. King,
    F. A. Evangelista, J. M. Turney, T. D. Crawford, C. D. Sherrill,
    J. Chem. Phys. 152(18) 184108 (2020). https://doi.org/10.1063/5.0006002

                            Additional Code Authors
    E. T. Seidl, C. L. Janssen, E. F. Valeev, M. L. Leininger,
    J. F. Gonthier, R. M. Richard, H. R. McAlexander, M. Saitow, X. Wang,
    P. Verma, M. H. Lechner, A. Jiang, S. Behnle, A. G. Heide,
    M. F. Herbst, and D. L. Poole

             Previous Authors, Complete List of Code Contributors,
                       and Citations for Specific Modules
    https://github.com/psi4/psi4/blob/master/codemeta.json
    https://github.com/psi4/psi4/graphs/contributors
    http://psicode.org/psi4manual/master/introduction.html#citing-psifour

    -----------------------------------------------------------------------


    Psi4 started on: Friday, 23 May 2025 12:11PM

    Process ID: 2872
    Host:       LAPTOP-FGPIQNI5
    PSIDATADIR: C:\Users\Anders Eggen\anaconda3\envs\rxn-insight\Library\share\psi4
    Memory:     1.9 GiB
    Threads:    1
    
  ==> Input QCSchema <==

--------------------------------------------------------------------------
{'driver': 'gradient',
 'extras': {'psiapi': True, 'wfn_qcvars_only': True},
 'id': None,
 'keywords': {'PARENT_SYMMETRY': 'C1',
              'SCF__D_CONVERGENCE': 1e-08,
              'SCF__E_CONVERGENCE': 1e-08,
              'SCF__INTS_TOLERANCE': 1e-12,
              'function_kwargs': {'write_orbitals': False}},
 'model': {'basis': 'sto-3g', 'method': 'hf'},
 'molecule': {'atom_labels': ['', '', '', '', '', '', '', '', ''],
              'atomic_numbers': [6, 6, 8, 1, 1, 1, 1, 1, 1],
              'extras': {},
              'fix_com': True,
              'fix_orientation': True,
              'fragment_charges': [0.0],
              'fragment_multiplicities': [1],
              'fragments': [[0, 1, 2, 3, 4, 5, 6, 7, 8]],
              'geometry': [-2.4765576234778526, 0.05986896691601321, -0.3025939006969148, 0.2721966758514687,
                           -0.9110809315974779, -0.4922431654360073, 2.0554655371979482, 0.6830912387987109,
                           0.78284540906464, -2.6709966329074875, 1.88369015603918, -1.225372403029621,
                           -3.75571685695772, -1.2625426897002958, -1.2118897715681447, -3.0327992250228113,
                           0.2634642224292073, 1.6619789740214272, 0.7767963100333632, -1.150135282470724,
                           -2.48922947734978, 0.4055076931225591, -2.76859125292221, 0.40387646554242146,
                           1.90242718321876, 2.3281962168703214, -0.09969974803063562],
              'mass_numbers': [12, 12, 16, 1, 1, 1, 1, 1, 1],
              'masses': [12.0, 12.0, 15.99491461957, 1.00782503223, 1.00782503223, 1.00782503223, 1.00782503223,
                         1.00782503223, 1.00782503223],
              'molecular_charge': 0.0,
              'molecular_multiplicity': 1,
              'name': 'C2H6O',
              'provenance': {'creator': 'QCElemental',
                             'routine': 'qcelemental.molparse.from_string',
                             'version': '0.29.0'},
              'real': [True, True, True, True, True, True, True, True, True],
              'schema_name': 'qcschema_molecule',
              'schema_version': 2,
              'symbols': ['C', 'C', 'O', 'H', 'H', 'H', 'H', 'H', 'H'],
              'validated': True},
 'protocols': {'stdout': True},
 'provenance': {'creator': 'QCElemental', 'routine': 'qcelemental.models.results', 'version': '0.29.0'},
 'schema_name': 'qcschema_input',
 'schema_version': 1}
--------------------------------------------------------------------------

Scratch directory: C:\Users\ANDERS~1\AppData\Local\Temp/
gradient() will perform analytic gradient computation.
   => Libint2 <=

    Primary   basis highest AM E, G, H:  6, 6, -
    Auxiliary basis highest AM E, G, H:  7, 7, -
    Onebody   basis highest AM E, G, H:  -, -, -
    Solid Harmonics ordering:            Gaussian

*** tstart() called on LAPTOP-FGPIQNI5
*** at Fri May 23 12:11:27 2025

   => Loading Basis Set <=

    Name: STO-3G
    Role: ORBITAL
    Keyword: BASIS
    atoms 1-2 entry C          line    61 file C:\Users\Anders Eggen\anaconda3\envs\rxn-insight\Library\share\psi4\basis\sto-3g.gbs 
    atoms 3   entry O          line    81 file C:\Users\Anders Eggen\anaconda3\envs\rxn-insight\Library\share\psi4\basis\sto-3g.gbs 
    atoms 4-9 entry H          line    19 file C:\Users\Anders Eggen\anaconda3\envs\rxn-insight\Library\share\psi4\basis\sto-3g.gbs 


         ---------------------------------------------------------
                                   SCF
               by Justin Turney, Rob Parrish, Andy Simmonett
                          and Daniel G. A. Smith
                              RHF Reference
                        1 Threads,   1907 MiB Core
         ---------------------------------------------------------

  ==> Geometry <==

    Molecular point group: c1
    Full point group: C1

    Geometry (in Bohr), charge = 0, multiplicity = 1:

       Center              X                  Y                   Z               Mass       
    ------------   -----------------  -----------------  -----------------  -----------------
         C           -2.476557623478     0.059868966916    -0.302593900697    12.000000000000
         C            0.272196675851    -0.911080931597    -0.492243165436    12.000000000000
         O            2.055465537198     0.683091238799     0.782845409065    15.994914619570
         H           -2.670996632907     1.883690156039    -1.225372403030     1.007825032230
         H           -3.755716856958    -1.262542689700    -1.211889771568     1.007825032230
         H           -3.032799225023     0.263464222429     1.661978974021     1.007825032230
         H            0.776796310033    -1.150135282471    -2.489229477350     1.007825032230
         H            0.405507693123    -2.768591252922     0.403876465542     1.007825032230
         H            1.902427183219     2.328196216870    -0.099699748031     1.007825032230

  Running in c1 symmetry.

  Rotational constants: A =      1.13986  B =      0.29948  C =      0.26520 [cm^-1]
  Rotational constants: A =  34172.10283  B =   8978.27747  C =   7950.59111 [MHz]
  Nuclear repulsion =   80.982515607672596

  Charge       = 0
  Multiplicity = 1
  Electrons    = 26
  Nalpha       = 13
  Nbeta        = 13

  ==> Algorithm <==

  SCF Algorithm Type is DF.
  DIIS enabled.
  MOM disabled.
  Fractional occupation disabled.
  Guess Type is SAD.
  Energy threshold   = 1.00e-08
  Density threshold  = 1.00e-08
  Integral threshold = 1.00e-12

  ==> Primary Basis <==

  Basis Set: STO-3G
    Blend: STO-3G
    Number of shells: 15
    Number of basis functions: 21
    Number of Cartesian functions: 21
    Spherical Harmonics?: true
    Max angular momentum: 1

   => Loading Basis Set <=

    Name: (STO-3G AUX)
    Role: JKFIT
    Keyword: DF_BASIS_SCF
    atoms 1-2 entry C          line   198 file C:\Users\Anders Eggen\anaconda3\envs\rxn-insight\Library\share\psi4\basis\def2-universal-jkfit.gbs 
    atoms 3   entry O          line   318 file C:\Users\Anders Eggen\anaconda3\envs\rxn-insight\Library\share\psi4\basis\def2-universal-jkfit.gbs 
    atoms 4-9 entry H          line    18 file C:\Users\Anders Eggen\anaconda3\envs\rxn-insight\Library\share\psi4\basis\def2-universal-jkfit.gbs 

  ==> Integral Setup <==

  DFHelper Memory: AOs need 0.002 GiB; user supplied 1.397 GiB. 
  Using in-core AOs.

  ==> MemDFJK: Density-Fitted J/K Matrices <==

    J tasked:                   Yes
    K tasked:                   Yes
    wK tasked:                   No
    OpenMP threads:               1
    Memory [MiB]:              1430
    Algorithm:                 Core
    Schwarz Cutoff:           1E-12
    Mask sparsity (%):       0.4535
    Fitting Condition:        1E-10

   => Auxiliary Basis Set <=

  Basis Set: (STO-3G AUX)
    Blend: DEF2-UNIVERSAL-JKFIT
    Number of shells: 111
    Number of basis functions: 335
    Number of Cartesian functions: 391
    Spherical Harmonics?: true
    Max angular momentum: 4

  Minimum eigenvalue in the overlap matrix is 2.1279548107E-01.
  Reciprocal condition number of the overlap matrix is 8.7625721041E-02.
    Using symmetric orthogonalization.

  ==> Pre-Iterations <==

  SCF Guess: Superposition of Atomic Densities via on-the-fly atomic UHF (no occupation information).

   -------------------------
    Irrep   Nso     Nmo    
   -------------------------
     A         21      21 
   -------------------------
    Total      21      21
   -------------------------

  ==> Iterations <==

                           Total Energy        Delta E     RMS |[F,P]|

   @DF-RHF iter SAD:  -149.46869889818166   -1.49469e+02   0.00000e+00 
   @DF-RHF iter   1:  -152.07342556335502   -2.60473e+00   1.34556e-02 DIIS/ADIIS
   @DF-RHF iter   2:  -152.12982242075515   -5.63969e-02   3.51954e-03 DIIS/ADIIS
   @DF-RHF iter   3:  -152.13319281148515   -3.37039e-03   6.62105e-04 DIIS/ADIIS
   @DF-RHF iter   4:  -152.13338946060713   -1.96649e-04   7.27530e-05 DIIS
   @DF-RHF iter   5:  -152.13339206608455   -2.60548e-06   2.02982e-05 DIIS
   @DF-RHF iter   6:  -152.13339233592623   -2.69842e-07   3.67548e-06 DIIS
   @DF-RHF iter   7:  -152.13339234418751   -8.26128e-09   9.08951e-07 DIIS
   @DF-RHF iter   8:  -152.13339234463814   -4.50626e-10   1.42595e-07 DIIS
   @DF-RHF iter   9:  -152.13339234464877   -1.06297e-11   2.26713e-08 DIIS
   @DF-RHF iter  10:  -152.13339234464905   -2.84217e-13   4.22783e-09 DIIS
  Energy and wave function converged.


  ==> Post-Iterations <==

    Orbital Energies [Eh]
    ---------------------

    Doubly Occupied:                                                      

       1A    -20.256902     2A    -11.089772     3A    -11.042995  
       4A     -1.277473     5A     -0.966471     6A     -0.802473  
       7A     -0.621464     8A     -0.566890     9A     -0.543754  
      10A     -0.500900    11A     -0.474311    12A     -0.405661  
      13A     -0.351625  

    Virtual:                                                              

      14A      0.564559    15A      0.617869    16A      0.657841  
      17A      0.682686    18A      0.719271    19A      0.750968  
      20A      0.767868    21A      0.781340  

    Final Occupation by Irrep:
              A 
    DOCC [    13 ]
    NA   [    13 ]
    NB   [    13 ]

  @DF-RHF Final Energy:  -152.13339234464905

   => Energetics <=

    Nuclear Repulsion Energy =             80.9825156076725960
    One-Electron Energy =                -368.4304337908305342
    Two-Electron Energy =                 135.3145258385088709
    Total Energy =                       -152.1333923446490530

Computation Completed


Properties will be evaluated at   0.000000,   0.000000,   0.000000 [a0]

Properties computed using the SCF density matrix


 Multipole Moments:

 ------------------------------------------------------------------------------------
     Multipole            Electronic (a.u.)      Nuclear  (a.u.)        Total (a.u.)
 ------------------------------------------------------------------------------------

 L = 1.  Multiply by 2.5417464519 to convert [e a0] to [Debye]
 Dipole X            :          2.7793860           -3.1572229           -0.3778369
 Dipole Y            :          0.5024059           -0.3484605            0.1539453
 Dipole Z            :          1.0255850           -1.4665951           -0.4410101
 Magnitude           :                                                    0.6007910

 ------------------------------------------------------------------------------------

*** tstop() called on LAPTOP-FGPIQNI5 at Fri May 23 12:11:29 2025
Module time:
	user time   =        nan seconds =        nan minutes
	system time =        nan seconds =        nan minutes
	total time  =          2 seconds =       0.03 minutes
Total time:
	user time   =        nan seconds =        nan minutes
	system time =        nan seconds =        nan minutes
	total time  =         17 seconds =       0.28 minutes

*** tstart() called on LAPTOP-FGPIQNI5
*** at Fri May 23 12:11:29 2025


         ------------------------------------------------------------
                                   SCF GRAD                          
                          Rob Parrish, Justin Turney,                
                       Andy Simmonett, and Alex Sokolov              
         ------------------------------------------------------------

  ==> Geometry <==

    Molecular point group: c1
    Full point group: C1

    Geometry (in Bohr), charge = 0, multiplicity = 1:

       Center              X                  Y                   Z               Mass       
    ------------   -----------------  -----------------  -----------------  -----------------
         C           -2.476557623478     0.059868966916    -0.302593900697    12.000000000000
         C            0.272196675851    -0.911080931597    -0.492243165436    12.000000000000
         O            2.055465537198     0.683091238799     0.782845409065    15.994914619570
         H           -2.670996632907     1.883690156039    -1.225372403030     1.007825032230
         H           -3.755716856958    -1.262542689700    -1.211889771568     1.007825032230
         H           -3.032799225023     0.263464222429     1.661978974021     1.007825032230
         H            0.776796310033    -1.150135282471    -2.489229477350     1.007825032230
         H            0.405507693123    -2.768591252922     0.403876465542     1.007825032230
         H            1.902427183219     2.328196216870    -0.099699748031     1.007825032230

  Nuclear repulsion =   80.982515607672596

  ==> Basis Set <==

  Basis Set: STO-3G
    Blend: STO-3G
    Number of shells: 15
    Number of basis functions: 21
    Number of Cartesian functions: 21
    Spherical Harmonics?: true
    Max angular momentum: 1

  ==> DFJKGrad: Density-Fitted SCF Gradients <==

    Gradient:                    1
    J tasked:                  Yes
    K tasked:                  Yes
    wK tasked:                  No
    OpenMP threads:              1
    Integrals threads:           1
    Memory [MiB]:             1430
    Schwarz Cutoff:          1E-12
    Fitting Condition:       1E-10

   => Auxiliary Basis Set <=

  Basis Set: (STO-3G AUX)
    Blend: DEF2-UNIVERSAL-JKFIT
    Number of shells: 111
    Number of basis functions: 335
    Number of Cartesian functions: 391
    Spherical Harmonics?: true
    Max angular momentum: 4


  -Total Gradient:
     Atom            X                  Y                   Z
    ------   -----------------  -----------------  -----------------
       1        0.001204182193     0.000085043234    -0.000013211653
       2       -0.000452276434     0.000121139385    -0.000046190913
       3       -0.000085004501    -0.000033607994     0.000016159269
       4       -0.000145560213     0.000014909148    -0.000007736275
       5       -0.000278158002    -0.000199235290    -0.000131080710
       6       -0.000177665007     0.000013144892     0.000145190702
       7       -0.000044073479     0.000007290156     0.000055585642
       8        0.000009871347     0.000002853557     0.000003234980
       9       -0.000031315903    -0.000011537087    -0.000021951042


*** tstop() called on LAPTOP-FGPIQNI5 at Fri May 23 12:11:29 2025
Module time:
	user time   =        nan seconds =        nan minutes
	system time =        nan seconds =        nan minutes
	total time  =          0 seconds =       0.00 minutes
Total time:
	user time   =        nan seconds =        nan minutes
	system time =        nan seconds =        nan minutes
	total time  =         17 seconds =       0.28 minutes

    Psi4 stopped on: Friday, 23 May 2025 12:11PM
    Psi4 wall time for execution: 0:00:01.43


    -----------------------------------------------------------------------
          Psi4: An Open-Source Ab Initio Electronic Structure Package
                               Psi4 1.9.1 release

                         Git: Rev {} zzzzzzz 


    D. G. A. Smith, L. A. Burns, A. C. Simmonett, R. M. Parrish,
    M. C. Schieber, R. Galvelis, P. Kraus, H. Kruse, R. Di Remigio,
    A. Alenaizan, A. M. James, S. Lehtola, J. P. Misiewicz, M. Scheurer,
    R. A. Shaw, J. B. Schriber, Y. Xie, Z. L. Glick, D. A. Sirianni,
    J. S. O'Brien, J. M. Waldrop, A. Kumar, E. G. Hohenstein,
    B. P. Pritchard, B. R. Brooks, H. F. Schaefer III, A. Yu. Sokolov,
    K. Patkowski, A. E. DePrince III, U. Bozkaya, R. A. King,
    F. A. Evangelista, J. M. Turney, T. D. Crawford, C. D. Sherrill,
    J. Chem. Phys. 152(18) 184108 (2020). https://doi.org/10.1063/5.0006002

                            Additional Code Authors
    E. T. Seidl, C. L. Janssen, E. F. Valeev, M. L. Leininger,
    J. F. Gonthier, R. M. Richard, H. R. McAlexander, M. Saitow, X. Wang,
    P. Verma, M. H. Lechner, A. Jiang, S. Behnle, A. G. Heide,
    M. F. Herbst, and D. L. Poole

             Previous Authors, Complete List of Code Contributors,
                       and Citations for Specific Modules
    https://github.com/psi4/psi4/blob/master/codemeta.json
    https://github.com/psi4/psi4/graphs/contributors
    http://psicode.org/psi4manual/master/introduction.html#citing-psifour

    -----------------------------------------------------------------------


    Psi4 started on: Friday, 23 May 2025 12:11PM

    Process ID: 2872
    Host:       LAPTOP-FGPIQNI5
    PSIDATADIR: C:\Users\Anders Eggen\anaconda3\envs\rxn-insight\Library\share\psi4
    Memory:     1.9 GiB
    Threads:    1
    
  ==> Input QCSchema <==

--------------------------------------------------------------------------
{'driver': 'gradient',
 'extras': {'psiapi': True, 'wfn_qcvars_only': True},
 'id': None,
 'keywords': {'PARENT_SYMMETRY': 'C1',
              'SCF__D_CONVERGENCE': 1e-08,
              'SCF__E_CONVERGENCE': 1e-08,
              'SCF__INTS_TOLERANCE': 1e-12,
              'function_kwargs': {'write_orbitals': False}},
 'model': {'basis': 'sto-3g', 'method': 'hf'},
 'molecule': {'atom_labels': ['', '', '', '', '', '', '', '', ''],
              'atomic_numbers': [6, 6, 8, 1, 1, 1, 1, 1, 1],
              'extras': {},
              'fix_com': True,
              'fix_orientation': True,
              'fragment_charges': [0.0],
              'fragment_multiplicities': [1],
              'fragments': [[0, 1, 2, 3, 4, 5, 6, 7, 8]],
              'geometry': [-2.477798731549213, 0.058627858844652624, -0.3025939006969148, 0.2726341752933518,
                           -0.9106434321555948, -0.4922431654360073, 2.0559030366398314, 0.683528738240594,
                           0.78284540906464, -2.6705591334656043, 1.884127655481063, -1.225372403029621,
                           -3.7552793575158367, -1.2621051902584126, -1.2118897715681447, -3.032361725580928,
                           0.26390172187109046, 1.6619789740214272, 0.7772338094752463, -1.1496977830288408,
                           -2.48922947734978, 0.4059451925644422, -2.768153753480327, 0.40387646554242146,
                           1.9028646826606435, 2.3286337163122046, -0.09969974803063562],
              'mass_numbers': [12, 12, 16, 1, 1, 1, 1, 1, 1],
              'masses': [12.0, 12.0, 15.99491461957, 1.00782503223, 1.00782503223, 1.00782503223, 1.00782503223,
                         1.00782503223, 1.00782503223],
              'molecular_charge': 0.0,
              'molecular_multiplicity': 1,
              'name': 'C2H6O',
              'provenance': {'creator': 'QCElemental',
                             'routine': 'qcelemental.molparse.from_string',
                             'version': '0.29.0'},
              'real': [True, True, True, True, True, True, True, True, True],
              'schema_name': 'qcschema_molecule',
              'schema_version': 2,
              'symbols': ['C', 'C', 'O', 'H', 'H', 'H', 'H', 'H', 'H'],
              'validated': True},
 'protocols': {'stdout': True},
 'provenance': {'creator': 'QCElemental', 'routine': 'qcelemental.models.results', 'version': '0.29.0'},
 'schema_name': 'qcschema_input',
 'schema_version': 1}
--------------------------------------------------------------------------

Scratch directory: C:\Users\ANDERS~1\AppData\Local\Temp/
gradient() will perform analytic gradient computation.
   => Libint2 <=

    Primary   basis highest AM E, G, H:  6, 6, -
    Auxiliary basis highest AM E, G, H:  7, 7, -
    Onebody   basis highest AM E, G, H:  -, -, -
    Solid Harmonics ordering:            Gaussian

*** tstart() called on LAPTOP-FGPIQNI5
*** at Fri May 23 12:11:29 2025

   => Loading Basis Set <=

    Name: STO-3G
    Role: ORBITAL
    Keyword: BASIS
    atoms 1-2 entry C          line    61 file C:\Users\Anders Eggen\anaconda3\envs\rxn-insight\Library\share\psi4\basis\sto-3g.gbs 
    atoms 3   entry O          line    81 file C:\Users\Anders Eggen\anaconda3\envs\rxn-insight\Library\share\psi4\basis\sto-3g.gbs 
    atoms 4-9 entry H          line    19 file C:\Users\Anders Eggen\anaconda3\envs\rxn-insight\Library\share\psi4\basis\sto-3g.gbs 


         ---------------------------------------------------------
                                   SCF
               by Justin Turney, Rob Parrish, Andy Simmonett
                          and Daniel G. A. Smith
                              RHF Reference
                        1 Threads,   1907 MiB Core
         ---------------------------------------------------------

  ==> Geometry <==

    Molecular point group: c1
    Full point group: C1

    Geometry (in Bohr), charge = 0, multiplicity = 1:

       Center              X                  Y                   Z               Mass       
    ------------   -----------------  -----------------  -----------------  -----------------
         C           -2.477798731549     0.058627858845    -0.302593900697    12.000000000000
         C            0.272634175293    -0.910643432156    -0.492243165436    12.000000000000
         O            2.055903036640     0.683528738241     0.782845409065    15.994914619570
         H           -2.670559133466     1.884127655481    -1.225372403030     1.007825032230
         H           -3.755279357516    -1.262105190258    -1.211889771568     1.007825032230
         H           -3.032361725581     0.263901721871     1.661978974021     1.007825032230
         H            0.777233809475    -1.149697783029    -2.489229477350     1.007825032230
         H            0.405945192564    -2.768153753480     0.403876465542     1.007825032230
         H            1.902864682661     2.328633716312    -0.099699748031     1.007825032230

  Running in c1 symmetry.

  Rotational constants: A =      1.14012  B =      0.29932  C =      0.26509 [cm^-1]
  Rotational constants: A =  34179.90988  B =   8973.35842  C =   7947.20588 [MHz]
  Nuclear repulsion =   80.974893717868724

  Charge       = 0
  Multiplicity = 1
  Electrons    = 26
  Nalpha       = 13
  Nbeta        = 13

  ==> Algorithm <==

  SCF Algorithm Type is DF.
  DIIS enabled.
  MOM disabled.
  Fractional occupation disabled.
  Guess Type is SAD.
  Energy threshold   = 1.00e-08
  Density threshold  = 1.00e-08
  Integral threshold = 1.00e-12

  ==> Primary Basis <==

  Basis Set: STO-3G
    Blend: STO-3G
    Number of shells: 15
    Number of basis functions: 21
    Number of Cartesian functions: 21
    Spherical Harmonics?: true
    Max angular momentum: 1

   => Loading Basis Set <=

    Name: (STO-3G AUX)
    Role: JKFIT
    Keyword: DF_BASIS_SCF
    atoms 1-2 entry C          line   198 file C:\Users\Anders Eggen\anaconda3\envs\rxn-insight\Library\share\psi4\basis\def2-universal-jkfit.gbs 
    atoms 3   entry O          line   318 file C:\Users\Anders Eggen\anaconda3\envs\rxn-insight\Library\share\psi4\basis\def2-universal-jkfit.gbs 
    atoms 4-9 entry H          line    18 file C:\Users\Anders Eggen\anaconda3\envs\rxn-insight\Library\share\psi4\basis\def2-universal-jkfit.gbs 

  ==> Integral Setup <==

  DFHelper Memory: AOs need 0.002 GiB; user supplied 1.397 GiB. 
  Using in-core AOs.

  ==> MemDFJK: Density-Fitted J/K Matrices <==

    J tasked:                   Yes
    K tasked:                   Yes
    wK tasked:                   No
    OpenMP threads:               1
    Memory [MiB]:              1430
    Algorithm:                 Core
    Schwarz Cutoff:           1E-12
    Mask sparsity (%):       0.4535
    Fitting Condition:        1E-10

   => Auxiliary Basis Set <=

  Basis Set: (STO-3G AUX)
    Blend: DEF2-UNIVERSAL-JKFIT
    Number of shells: 111
    Number of basis functions: 335
    Number of Cartesian functions: 391
    Spherical Harmonics?: true
    Max angular momentum: 4

  Minimum eigenvalue in the overlap matrix is 2.1279998874E-01.
  Reciprocal condition number of the overlap matrix is 8.7630826024E-02.
    Using symmetric orthogonalization.

  ==> Pre-Iterations <==

  SCF Guess: Superposition of Atomic Densities via on-the-fly atomic UHF (no occupation information).

   -------------------------
    Irrep   Nso     Nmo    
   -------------------------
     A         21      21 
   -------------------------
    Total      21      21
   -------------------------

  ==> Iterations <==

                           Total Energy        Delta E     RMS |[F,P]|

   @DF-RHF iter SAD:  -149.46851145750276   -1.49469e+02   0.00000e+00 
   @DF-RHF iter   1:  -152.07343783029648   -2.60493e+00   1.34542e-02 DIIS/ADIIS
   @DF-RHF iter   2:  -152.12982111474383   -5.63833e-02   3.51999e-03 DIIS/ADIIS
   @DF-RHF iter   3:  -152.13319250718069   -3.37139e-03   6.62234e-04 DIIS/ADIIS
   @DF-RHF iter   4:  -152.13338927525518   -1.96768e-04   7.27952e-05 DIIS
   @DF-RHF iter   5:  -152.13339188412633   -2.60887e-06   2.03098e-05 DIIS
   @DF-RHF iter   6:  -152.13339215421121   -2.70085e-07   3.68521e-06 DIIS
   @DF-RHF iter   7:  -152.13339216250910   -8.29789e-09   9.13274e-07 DIIS
   @DF-RHF iter   8:  -152.13339216296458   -4.55486e-10   1.42811e-07 DIIS
   @DF-RHF iter   9:  -152.13339216297513   -1.05445e-11   2.26790e-08 DIIS
   @DF-RHF iter  10:  -152.13339216297564   -5.11591e-13   4.23519e-09 DIIS
  Energy and wave function converged.


  ==> Post-Iterations <==

    Orbital Energies [Eh]
    ---------------------

    Doubly Occupied:                                                      

       1A    -20.256964     2A    -11.089740     3A    -11.042990  
       4A     -1.277484     5A     -0.966425     6A     -0.802481  
       7A     -0.621416     8A     -0.567036     9A     -0.543656  
      10A     -0.500974    11A     -0.474277    12A     -0.405697  
      13A     -0.351635  

    Virtual:                                                              

      14A      0.564753    15A      0.617698    16A      0.657699  
      17A      0.682676    18A      0.719375    19A      0.750482  
      20A      0.768491    21A      0.781238  

    Final Occupation by Irrep:
              A 
    DOCC [    13 ]
    NA   [    13 ]
    NB   [    13 ]

  @DF-RHF Final Energy:  -152.13339216297564

   => Energetics <=

    Nuclear Repulsion Energy =             80.9748937178687243
    One-Electron Energy =                -368.4150234199436227
    Two-Electron Energy =                 135.3067375390992595
    Total Energy =                       -152.1333921629756389

Computation Completed


Properties will be evaluated at   0.000000,   0.000000,   0.000000 [a0]

Properties computed using the SCF density matrix


 Multipole Moments:

 ------------------------------------------------------------------------------------
     Multipole            Electronic (a.u.)      Nuclear  (a.u.)        Total (a.u.)
 ------------------------------------------------------------------------------------

 L = 1.  Multiply by 2.5417464519 to convert [e a0] to [Debye]
 Dipole X            :          2.7782173           -3.1559196           -0.3777023
 Dipole Y            :          0.5012966           -0.3471572            0.1541394
 Dipole Z            :          1.0256686           -1.4665951           -0.4409265
 Magnitude           :                                                    0.6006947

 ------------------------------------------------------------------------------------

*** tstop() called on LAPTOP-FGPIQNI5 at Fri May 23 12:11:30 2025
Module time:
	user time   =        nan seconds =        nan minutes
	system time =        nan seconds =        nan minutes
	total time  =          1 seconds =       0.02 minutes
Total time:
	user time   =        nan seconds =        nan minutes
	system time =        nan seconds =        nan minutes
	total time  =         18 seconds =       0.30 minutes

*** tstart() called on LAPTOP-FGPIQNI5
*** at Fri May 23 12:11:30 2025


         ------------------------------------------------------------
                                   SCF GRAD                          
                          Rob Parrish, Justin Turney,                
                       Andy Simmonett, and Alex Sokolov              
         ------------------------------------------------------------

  ==> Geometry <==

    Molecular point group: c1
    Full point group: C1

    Geometry (in Bohr), charge = 0, multiplicity = 1:

       Center              X                  Y                   Z               Mass       
    ------------   -----------------  -----------------  -----------------  -----------------
         C           -2.477798731549     0.058627858845    -0.302593900697    12.000000000000
         C            0.272634175293    -0.910643432156    -0.492243165436    12.000000000000
         O            2.055903036640     0.683528738241     0.782845409065    15.994914619570
         H           -2.670559133466     1.884127655481    -1.225372403030     1.007825032230
         H           -3.755279357516    -1.262105190258    -1.211889771568     1.007825032230
         H           -3.032361725581     0.263901721871     1.661978974021     1.007825032230
         H            0.777233809475    -1.149697783029    -2.489229477350     1.007825032230
         H            0.405945192564    -2.768153753480     0.403876465542     1.007825032230
         H            1.902864682661     2.328633716312    -0.099699748031     1.007825032230

  Nuclear repulsion =   80.974893717868724

  ==> Basis Set <==

  Basis Set: STO-3G
    Blend: STO-3G
    Number of shells: 15
    Number of basis functions: 21
    Number of Cartesian functions: 21
    Spherical Harmonics?: true
    Max angular momentum: 1

  ==> DFJKGrad: Density-Fitted SCF Gradients <==

    Gradient:                    1
    J tasked:                  Yes
    K tasked:                  Yes
    wK tasked:                  No
    OpenMP threads:              1
    Integrals threads:           1
    Memory [MiB]:             1430
    Schwarz Cutoff:          1E-12
    Fitting Condition:       1E-10

   => Auxiliary Basis Set <=

  Basis Set: (STO-3G AUX)
    Blend: DEF2-UNIVERSAL-JKFIT
    Number of shells: 111
    Number of basis functions: 335
    Number of Cartesian functions: 391
    Spherical Harmonics?: true
    Max angular momentum: 4


  -Total Gradient:
     Atom            X                  Y                   Z
    ------   -----------------  -----------------  -----------------
       1       -0.000095580959    -0.001411374190    -0.000032889895
       2       -0.000103815152     0.000253478636    -0.000085214989
       3        0.000037263208    -0.000044053169     0.000039723198
       4       -0.000062436916     0.000606535455    -0.000239506204
       5        0.000361316338     0.000464803188     0.000233136035
       6       -0.000018726512     0.000140673759     0.000041286338
       7       -0.000033338871    -0.000005192374     0.000055625464
       8       -0.000052738809     0.000016534724     0.000011600783
       9       -0.000031942326    -0.000021406030    -0.000023760729


*** tstop() called on LAPTOP-FGPIQNI5 at Fri May 23 12:11:30 2025
Module time:
	user time   =        nan seconds =        nan minutes
	system time =        nan seconds =        nan minutes
	total time  =          0 seconds =       0.00 minutes
Total time:
	user time   =        nan seconds =        nan minutes
	system time =        nan seconds =        nan minutes
	total time  =         18 seconds =       0.30 minutes

    Psi4 stopped on: Friday, 23 May 2025 12:11PM
    Psi4 wall time for execution: 0:00:01.46


    -----------------------------------------------------------------------
          Psi4: An Open-Source Ab Initio Electronic Structure Package
                               Psi4 1.9.1 release

                         Git: Rev {} zzzzzzz 


    D. G. A. Smith, L. A. Burns, A. C. Simmonett, R. M. Parrish,
    M. C. Schieber, R. Galvelis, P. Kraus, H. Kruse, R. Di Remigio,
    A. Alenaizan, A. M. James, S. Lehtola, J. P. Misiewicz, M. Scheurer,
    R. A. Shaw, J. B. Schriber, Y. Xie, Z. L. Glick, D. A. Sirianni,
    J. S. O'Brien, J. M. Waldrop, A. Kumar, E. G. Hohenstein,
    B. P. Pritchard, B. R. Brooks, H. F. Schaefer III, A. Yu. Sokolov,
    K. Patkowski, A. E. DePrince III, U. Bozkaya, R. A. King,
    F. A. Evangelista, J. M. Turney, T. D. Crawford, C. D. Sherrill,
    J. Chem. Phys. 152(18) 184108 (2020). https://doi.org/10.1063/5.0006002

                            Additional Code Authors
    E. T. Seidl, C. L. Janssen, E. F. Valeev, M. L. Leininger,
    J. F. Gonthier, R. M. Richard, H. R. McAlexander, M. Saitow, X. Wang,
    P. Verma, M. H. Lechner, A. Jiang, S. Behnle, A. G. Heide,
    M. F. Herbst, and D. L. Poole

             Previous Authors, Complete List of Code Contributors,
                       and Citations for Specific Modules
    https://github.com/psi4/psi4/blob/master/codemeta.json
    https://github.com/psi4/psi4/graphs/contributors
    http://psicode.org/psi4manual/master/introduction.html#citing-psifour

    -----------------------------------------------------------------------


    Psi4 started on: Friday, 23 May 2025 12:11PM

    Process ID: 2872
    Host:       LAPTOP-FGPIQNI5
    PSIDATADIR: C:\Users\Anders Eggen\anaconda3\envs\rxn-insight\Library\share\psi4
    Memory:     1.9 GiB
    Threads:    1
    
  ==> Input QCSchema <==

--------------------------------------------------------------------------
{'driver': 'gradient',
 'extras': {'psiapi': True, 'wfn_qcvars_only': True},
 'id': None,
 'keywords': {'PARENT_SYMMETRY': 'C1',
              'SCF__D_CONVERGENCE': 1e-08,
              'SCF__E_CONVERGENCE': 1e-08,
              'SCF__INTS_TOLERANCE': 1e-12,
              'function_kwargs': {'write_orbitals': False}},
 'model': {'basis': 'sto-3g', 'method': 'hf'},
 'molecule': {'atom_labels': ['', '', '', '', '', '', '', '', ''],
              'atomic_numbers': [6, 6, 8, 1, 1, 1, 1, 1, 1],
              'extras': {},
              'fix_com': True,
              'fix_orientation': True,
              'fragment_charges': [0.0],
              'fragment_multiplicities': [1],
              'fragments': [[0, 1, 2, 3, 4, 5, 6, 7, 8]],
              'geometry': [-2.477798731549213, 0.0611100749873738, -0.3025939006969148, 0.2726341752933518,
                           -0.911518431039361, -0.4922431654360073, 2.0559030366398314, 0.6826537393568278,
                           0.78284540906464, -2.6705591334656043, 1.883252656597297, -1.225372403029621,
                           -3.7552793575158367, -1.262980189142179, -1.2118897715681447, -3.032361725580928,
                           0.26302672298732416, 1.6619789740214272, 0.7772338094752463, -1.1505727819126073,
                           -2.48922947734978, 0.4059451925644422, -2.7690287523640933, 0.40387646554242146,
                           1.9028646826606435, 2.327758717428438, -0.09969974803063562],
              'mass_numbers': [12, 12, 16, 1, 1, 1, 1, 1, 1],
              'masses': [12.0, 12.0, 15.99491461957, 1.00782503223, 1.00782503223, 1.00782503223, 1.00782503223,
                         1.00782503223, 1.00782503223],
              'molecular_charge': 0.0,
              'molecular_multiplicity': 1,
              'name': 'C2H6O',
              'provenance': {'creator': 'QCElemental',
                             'routine': 'qcelemental.molparse.from_string',
                             'version': '0.29.0'},
              'real': [True, True, True, True, True, True, True, True, True],
              'schema_name': 'qcschema_molecule',
              'schema_version': 2,
              'symbols': ['C', 'C', 'O', 'H', 'H', 'H', 'H', 'H', 'H'],
              'validated': True},
 'protocols': {'stdout': True},
 'provenance': {'creator': 'QCElemental', 'routine': 'qcelemental.models.results', 'version': '0.29.0'},
 'schema_name': 'qcschema_input',
 'schema_version': 1}
--------------------------------------------------------------------------

Scratch directory: C:\Users\ANDERS~1\AppData\Local\Temp/
gradient() will perform analytic gradient computation.
   => Libint2 <=

    Primary   basis highest AM E, G, H:  6, 6, -
    Auxiliary basis highest AM E, G, H:  7, 7, -
    Onebody   basis highest AM E, G, H:  -, -, -
    Solid Harmonics ordering:            Gaussian

*** tstart() called on LAPTOP-FGPIQNI5
*** at Fri May 23 12:11:30 2025

   => Loading Basis Set <=

    Name: STO-3G
    Role: ORBITAL
    Keyword: BASIS
    atoms 1-2 entry C          line    61 file C:\Users\Anders Eggen\anaconda3\envs\rxn-insight\Library\share\psi4\basis\sto-3g.gbs 
    atoms 3   entry O          line    81 file C:\Users\Anders Eggen\anaconda3\envs\rxn-insight\Library\share\psi4\basis\sto-3g.gbs 
    atoms 4-9 entry H          line    19 file C:\Users\Anders Eggen\anaconda3\envs\rxn-insight\Library\share\psi4\basis\sto-3g.gbs 


         ---------------------------------------------------------
                                   SCF
               by Justin Turney, Rob Parrish, Andy Simmonett
                          and Daniel G. A. Smith
                              RHF Reference
                        1 Threads,   1907 MiB Core
         ---------------------------------------------------------

  ==> Geometry <==

    Molecular point group: c1
    Full point group: C1

    Geometry (in Bohr), charge = 0, multiplicity = 1:

       Center              X                  Y                   Z               Mass       
    ------------   -----------------  -----------------  -----------------  -----------------
         C           -2.477798731549     0.061110074987    -0.302593900697    12.000000000000
         C            0.272634175293    -0.911518431039    -0.492243165436    12.000000000000
         O            2.055903036640     0.682653739357     0.782845409065    15.994914619570
         H           -2.670559133466     1.883252656597    -1.225372403030     1.007825032230
         H           -3.755279357516    -1.262980189142    -1.211889771568     1.007825032230
         H           -3.032361725581     0.263026722987     1.661978974021     1.007825032230
         H            0.777233809475    -1.150572781913    -2.489229477350     1.007825032230
         H            0.405945192564    -2.769028752364     0.403876465542     1.007825032230
         H            1.902864682661     2.327758717428    -0.099699748031     1.007825032230

  Running in c1 symmetry.

  Rotational constants: A =      1.13940  B =      0.29936  C =      0.26508 [cm^-1]
  Rotational constants: A =  34158.45320  B =   8974.67266  C =   7946.99827 [MHz]
  Nuclear repulsion =   80.971994539071005

  Charge       = 0
  Multiplicity = 1
  Electrons    = 26
  Nalpha       = 13
  Nbeta        = 13

  ==> Algorithm <==

  SCF Algorithm Type is DF.
  DIIS enabled.
  MOM disabled.
  Fractional occupation disabled.
  Guess Type is SAD.
  Energy threshold   = 1.00e-08
  Density threshold  = 1.00e-08
  Integral threshold = 1.00e-12

  ==> Primary Basis <==

  Basis Set: STO-3G
    Blend: STO-3G
    Number of shells: 15
    Number of basis functions: 21
    Number of Cartesian functions: 21
    Spherical Harmonics?: true
    Max angular momentum: 1

   => Loading Basis Set <=

    Name: (STO-3G AUX)
    Role: JKFIT
    Keyword: DF_BASIS_SCF
    atoms 1-2 entry C          line   198 file C:\Users\Anders Eggen\anaconda3\envs\rxn-insight\Library\share\psi4\basis\def2-universal-jkfit.gbs 
    atoms 3   entry O          line   318 file C:\Users\Anders Eggen\anaconda3\envs\rxn-insight\Library\share\psi4\basis\def2-universal-jkfit.gbs 
    atoms 4-9 entry H          line    18 file C:\Users\Anders Eggen\anaconda3\envs\rxn-insight\Library\share\psi4\basis\def2-universal-jkfit.gbs 

  ==> Integral Setup <==

  DFHelper Memory: AOs need 0.002 GiB; user supplied 1.397 GiB. 
  Using in-core AOs.

  ==> MemDFJK: Density-Fitted J/K Matrices <==

    J tasked:                   Yes
    K tasked:                   Yes
    wK tasked:                   No
    OpenMP threads:               1
    Memory [MiB]:              1430
    Algorithm:                 Core
    Schwarz Cutoff:           1E-12
    Mask sparsity (%):       0.4535
    Fitting Condition:        1E-10

   => Auxiliary Basis Set <=

  Basis Set: (STO-3G AUX)
    Blend: DEF2-UNIVERSAL-JKFIT
    Number of shells: 111
    Number of basis functions: 335
    Number of Cartesian functions: 391
    Spherical Harmonics?: true
    Max angular momentum: 4

  Minimum eigenvalue in the overlap matrix is 2.1282169890E-01.
  Reciprocal condition number of the overlap matrix is 8.7643763712E-02.
    Using symmetric orthogonalization.

  ==> Pre-Iterations <==

  SCF Guess: Superposition of Atomic Densities via on-the-fly atomic UHF (no occupation information).

   -------------------------
    Irrep   Nso     Nmo    
   -------------------------
     A         21      21 
   -------------------------
    Total      21      21
   -------------------------

  ==> Iterations <==

                           Total Energy        Delta E     RMS |[F,P]|

   @DF-RHF iter SAD:  -149.46829796816615   -1.49468e+02   0.00000e+00 
   @DF-RHF iter   1:  -152.07343408263233   -2.60514e+00   1.34546e-02 DIIS/ADIIS
   @DF-RHF iter   2:  -152.12982139872759   -5.63873e-02   3.51969e-03 DIIS/ADIIS
   @DF-RHF iter   3:  -152.13319248540549   -3.37109e-03   6.62189e-04 DIIS/ADIIS
   @DF-RHF iter   4:  -152.13338924973877   -1.96764e-04   7.28180e-05 DIIS
   @DF-RHF iter   5:  -152.13339185920341   -2.60946e-06   2.03126e-05 DIIS
   @DF-RHF iter   6:  -152.13339212924532   -2.70042e-07   3.69842e-06 DIIS
   @DF-RHF iter   7:  -152.13339213759275   -8.34743e-09   9.19591e-07 DIIS
   @DF-RHF iter   8:  -152.13339213805583   -4.63075e-10   1.42874e-07 DIIS
   @DF-RHF iter   9:  -152.13339213806663   -1.08002e-11   2.26435e-08 DIIS
   @DF-RHF iter  10:  -152.13339213806705   -4.26326e-13   4.22316e-09 DIIS
  Energy and wave function converged.


  ==> Post-Iterations <==

    Orbital Energies [Eh]
    ---------------------

    Doubly Occupied:                                                      

       1A    -20.256879     2A    -11.089730     3A    -11.042983  
       4A     -1.277443     5A     -0.966326     6A     -0.802547  
       7A     -0.621426     8A     -0.566865     9A     -0.543661  
      10A     -0.500966    11A     -0.474548    12A     -0.405629  
      13A     -0.351532  

    Virtual:                                                              

      14A      0.564690    15A      0.618221    16A      0.657513  
      17A      0.682171    18A      0.719281    19A      0.751435  
      20A      0.767729    21A      0.781405  

    Final Occupation by Irrep:
              A 
    DOCC [    13 ]
    NA   [    13 ]
    NB   [    13 ]

  @DF-RHF Final Energy:  -152.13339213806705

   => Energetics <=

    Nuclear Repulsion Energy =             80.9719945390710052
    One-Electron Energy =                -368.4097085934231472
    Two-Electron Energy =                 135.3043219162850619
    Total Energy =                       -152.1333921380670517

Computation Completed


Properties will be evaluated at   0.000000,   0.000000,   0.000000 [a0]

Properties computed using the SCF density matrix


 Multipole Moments:

 ------------------------------------------------------------------------------------
     Multipole            Electronic (a.u.)      Nuclear  (a.u.)        Total (a.u.)
 ------------------------------------------------------------------------------------

 L = 1.  Multiply by 2.5417464519 to convert [e a0] to [Debye]
 Dipole X            :          2.7781688           -3.1559196           -0.3777508
 Dipole Y            :          0.5036801           -0.3497638            0.1539163
 Dipole Z            :          1.0255869           -1.4665951           -0.4410082
 Magnitude           :                                                    0.6007280

 ------------------------------------------------------------------------------------

[...]
       3        0.000143809087    -0.001122681212     0.000715196640
       4       -0.000007851217    -0.000031928123     0.000018428033
       5        0.000094215394     0.000062291839     0.000046526436
       6       -0.000008684214    -0.000003074673    -0.000013499283
       7       -0.000048293517     0.000137305574     0.000012410354
       8        0.000075808093    -0.000523851405     0.000535656628
       9       -0.000248029459     0.000808360896    -0.000630233195


*** tstop() called on LAPTOP-FGPIQNI5 at Fri May 23 12:12:37 2025
Module time:
	user time   =        nan seconds =        nan minutes
	system time =        nan seconds =        nan minutes
	total time  =          0 seconds =       0.00 minutes
Total time:
	user time   =        nan seconds =        nan minutes
	system time =        nan seconds =        nan minutes
	total time  =         85 seconds =       1.42 minutes

    Psi4 stopped on: Friday, 23 May 2025 12:12PM
    Psi4 wall time for execution: 0:00:01.38


  //>>>>>>>>>>>>>>>>>>>>>>>>>>>>>>>>>>>//
  //      FiniteDifference Results     //
  //<<<<<<<<<<<<<<<<<<<<<<<<<<<<<<<<<<<//

  Computing second-derivative from gradients using projected, 
  symmetry-adapted, cartesian coordinates.

  49 gradients passed in, including the reference geometry.
  Generating complete list of displacements from unique ones.


-------------------------------------------------------------


  ==> Harmonic Vibrational Analysis <==

  non-mass-weighted Hessian:       Symmetric? True   Hermitian? True   Lin Dep Dim?  3 (0)
  projection of translations (True) and rotations (True) removed 6 degrees of freedom (6)
  total projector:                 Symmetric? True   Hermitian? True   Lin Dep Dim?  6 (6)
  mass-weighted Hessian:           Symmetric? True   Hermitian? True   Lin Dep Dim?  3 (0)
  pre-proj  low-frequency mode:    0.0000i [cm^-1]
  pre-proj  low-frequency mode:    0.0000i [cm^-1]
  pre-proj  low-frequency mode:    0.0000i [cm^-1]
  pre-proj  low-frequency mode:    0.0000  [cm^-1]
  pre-proj  low-frequency mode:    0.0000  [cm^-1]
  pre-proj  low-frequency mode:    0.0000  [cm^-1]
  pre-proj  all modes:['13.6728i' '8.5337i' '7.2196i' '0.0000' '0.0000' '0.0000' '235.0734'
 '373.5431' '456.2654' '935.5757' '1067.1000' '1247.7883' '1273.7095'
 '1350.1933' '1513.1092' '1660.0375' '1723.2661' '1745.4356' '1814.7029'
 '1826.2881' '1840.6916' '3560.3809' '3568.5428' '3683.2706' '3750.0279'
 '3759.2261' '4224.2915']
  projected mass-weighted Hessian: Symmetric? True   Hermitian? True   Lin Dep Dim?  6 (6)
  post-proj low-frequency mode:    0.0000i [cm^-1] (TR)
  post-proj low-frequency mode:    0.0000i [cm^-1] (TR)
  post-proj low-frequency mode:    0.0000i [cm^-1] (TR)
  post-proj low-frequency mode:    0.0000  [cm^-1] (TR)
  post-proj low-frequency mode:    0.0000  [cm^-1] (TR)
  post-proj low-frequency mode:    0.0000  [cm^-1] (TR)
  post-proj  all modes:['0.0000i' '0.0000i' '0.0000i' '0.0000' '0.0000' '0.0000' '235.0717'
 '373.5430' '456.2654' '935.5757' '1067.1000' '1247.7883' '1273.7095'
 '1350.1933' '1513.1092' '1660.0375' '1723.2661' '1745.4356' '1814.7029'
 '1826.2881' '1840.6916' '3560.3809' '3568.5428' '3683.2706' '3750.0279'
 '3759.2261' '4224.2915']

  Vibration                       7                   8                   9           
  Freq [cm^-1]                 235.0717            373.5430            456.2654       
  Irrep                           A                   A                   A           
  Reduced mass [u]              1.0934              1.1031              2.9709        
  Force const [mDyne/A]         0.0356              0.0907              0.3644        
  Turning point v=0 [a0]        0.6844              0.5405              0.2980        
  RMS dev v=0 [a0 u^1/2]        0.5061              0.4014              0.3632        
  IR activ [km/mol]             1.7403             78.6541              9.9697        
  Char temp [K]                338.2159            537.4452            656.4643       
  ----------------------------------------------------------------------------------
      1   C                0.00  0.00  0.00   -0.03 -0.03  0.01   -0.20 -0.07 -0.07   
      2   C                0.01  0.03 -0.06    0.00  0.04 -0.03   -0.06  0.16  0.11   
      3   O               -0.01 -0.03  0.04   -0.02  0.00  0.05    0.25 -0.06 -0.02   
      4   H               -0.17 -0.24 -0.44   -0.13 -0.04 -0.00   -0.42 -0.14 -0.17   
      5   H               -0.07 -0.28  0.50    0.00 -0.09  0.06    0.15 -0.33 -0.18   
      6   H                0.24  0.48  0.02    0.01 -0.03  0.02   -0.49 -0.11 -0.15   
      7   H                0.01  0.13 -0.07    0.02  0.11 -0.03   -0.12  0.11  0.10   
      8   H                0.02 -0.01 -0.15    0.00  0.02 -0.09   -0.10  0.15  0.09   
      9   H               -0.07  0.04  0.19    0.74 -0.26 -0.57    0.12  0.10  0.29   

  Vibration                       10                  11                  12          
  Freq [cm^-1]                 935.5757           1067.1000           1247.7883       
  Irrep                           A                   A                   A           
  Reduced mass [u]              1.1001              2.0953              1.3977        
  Force const [mDyne/A]         0.5673              1.4058              1.2822        
  Turning point v=0 [a0]        0.3420              0.2321              0.2627        
  RMS dev v=0 [a0 u^1/2]        0.2537              0.2375              0.2196        
  IR activ [km/mol]             2.3165              0.0839             12.8275        
  Char temp [K]               1346.0851           1535.3193           1795.2896       
  ----------------------------------------------------------------------------------
      1   C               -0.01 -0.02  0.03    0.21  0.01  0.04    0.03 -0.13 -0.01   
      2   C               -0.01 -0.04  0.07   -0.08  0.13  0.06   -0.08  0.10 -0.02   
      3   O                0.01  0.02 -0.01   -0.10 -0.08 -0.06   -0.01 -0.02 -0.01   
      4   H                0.39 -0.08 -0.19   -0.04 -0.11 -0.13    0.57 -0.07 -0.01   
      5   H                0.00  0.10 -0.15    0.74 -0.37 -0.13   -0.30  0.22 -0.04   
      6   H               -0.36  0.26 -0.10   -0.13 -0.11 -0.05    0.16  0.14 -0.00   
      7   H               -0.23  0.45 -0.05   -0.28  0.10  0.02   -0.21 -0.15 -0.02   
      8   H                0.30 -0.23 -0.36   -0.21  0.11  0.03    0.20  0.27  0.26   
      9   H               -0.06 -0.05 -0.13   -0.02 -0.05 -0.01    0.33  0.16  0.28   

  Vibration                       13                  14                  15          
  Freq [cm^-1]                1273.7095           1350.1933           1513.1092       
  Irrep                           A                   A                   A           
  Reduced mass [u]              1.7784              2.0727              1.1977        
  Force const [mDyne/A]         1.6999              2.2262              1.6156        
  Turning point v=0 [a0]        0.2305              0.2074              0.2578        
  RMS dev v=0 [a0 u^1/2]        0.2174              0.2112              0.1995        
  IR activ [km/mol]            12.8414              7.5046              1.5876        
  Char temp [K]               1832.5844           1942.6276           2177.0272       
  ----------------------------------------------------------------------------------
      1   C               -0.08  0.06  0.10   -0.03 -0.01 -0.07    0.01  0.06 -0.08   
      2   C                0.17  0.01 -0.07    0.09  0.12  0.17   -0.02 -0.06  0.05   
      3   O               -0.08 -0.06 -0.03   -0.09 -0.11 -0.10   -0.00  0.01  0.01   
      4   H               -0.08 -0.03 -0.12   -0.05  0.10  0.14   -0.30  0.11  0.08   
      5   H                0.15 -0.02 -0.12   -0.27  0.09  0.12    0.03 -0.08  0.11   
      6   H               -0.54  0.17 -0.04    0.32 -0.04  0.03    0.26 -0.19  0.01   
      7   H                0.03 -0.33 -0.08    0.52  0.45  0.24   -0.57  0.00 -0.09   
      8   H                0.49  0.20  0.29    0.33  0.06  0.02    0.60 -0.03  0.03   
      9   H                0.17  0.05  0.17   -0.11 -0.13 -0.08    0.15  0.08  0.12   

  Vibration                       16                  17                  18          
  Freq [cm^-1]                1660.0375           1723.2661           1745.4356       
  Irrep                           A                   A                   A           
  Reduced mass [u]              1.4139              1.2277              1.3571        
  Force const [mDyne/A]         2.2956              2.1480              2.4360        
  Turning point v=0 [a0]        0.2265              0.2386              0.2255        
  RMS dev v=0 [a0 u^1/2]        0.1904              0.1869              0.1857        
  IR activ [km/mol]            12.6002              5.5595             22.0550        
  Char temp [K]               2388.4244           2479.3963           2511.2932       
  ----------------------------------------------------------------------------------
      1   C               -0.01  0.05  0.03   -0.11  0.02  0.01   -0.10  0.02 -0.01   
      2   C               -0.16 -0.07 -0.03    0.01  0.04 -0.03    0.10 -0.03  0.06   
      3   O                0.01  0.02 -0.02    0.03 -0.02  0.04   -0.04  0.02 -0.05   
      4   H                0.13 -0.02 -0.14    0.40  0.03 -0.09    0.32  0.07  0.01   
      5   H                0.29 -0.18 -0.05    0.31 -0.24 -0.20    0.20 -0.24 -0.06   
      6   H                0.07 -0.14  0.08    0.43 -0.04  0.16    0.29 -0.03  0.11   
      7   H                0.67  0.08  0.16   -0.11 -0.08 -0.05   -0.14 -0.02 -0.00   
      8   H                0.40 -0.03 -0.01    0.17  0.14  0.12   -0.41 -0.22 -0.24   
      9   H                0.25  0.17  0.20   -0.40 -0.25 -0.33    0.42  0.26  0.36   

  Vibration                       19                  20                  21          
  Freq [cm^-1]                1814.7029           1826.2881           1840.6916       
  Irrep                           A                   A                   A           
  Reduced mass [u]              1.0895              1.0491              1.0774        
  Force const [mDyne/A]         2.1140              2.0616              2.1507        
  Turning point v=0 [a0]        0.2468              0.2507              0.2464        
  RMS dev v=0 [a0 u^1/2]        0.1821              0.1816              0.1808        
  IR activ [km/mol]             1.2119              2.3419              0.2271        
  Char temp [K]               2610.9534           2627.6219           2648.3454       
  ----------------------------------------------------------------------------------
      1   C               -0.01  0.03  0.01    0.00  0.03 -0.05   -0.01 -0.04 -0.02   
      2   C                0.03 -0.07 -0.03   -0.00  0.01 -0.01   -0.01 -0.05 -0.03   
      3   O               -0.00  0.00 -0.00    0.00 -0.00  0.01    0.00  0.00  0.00   
      4   H                0.08 -0.11 -0.29    0.40  0.21  0.25   -0.08  0.23  0.52   
      5   H               -0.09  0.05  0.08   -0.05 -0.38  0.61    0.21 -0.19 -0.10   
      6   H               -0.02 -0.36  0.05   -0.37 -0.21 -0.13    0.02  0.58 -0.08   
      7   H               -0.09  0.59 -0.13    0.02 -0.06 -0.01    0.02  0.33 -0.07   
      8   H               -0.20  0.19  0.54    0.02  0.02 -0.01   -0.04  0.10  0.31   
      9   H                0.04  0.03  0.03   -0.05 -0.03 -0.04    0.03  0.02  0.03   

  Vibration                       22                  23                  24          
  Freq [cm^-1]                3560.3809           3568.5428           3683.2706       
  Irrep                           A                   A                   A           
  Reduced mass [u]              1.0664              1.0398              1.1096        
  Force const [mDyne/A]         7.9648              7.8017              8.8689        
  Turning point v=0 [a0]        0.1781              0.1801              0.1716        
  RMS dev v=0 [a0 u^1/2]        0.1300              0.1299              0.1278        
  IR activ [km/mol]            11.2514              0.7098              4.0019        
  Char temp [K]               5122.5954           5134.3386           5299.4063       
  ----------------------------------------------------------------------------------
      1   C                0.00  0.00  0.00    0.05 -0.02 -0.00    0.00  0.01 -0.01   
      2   C                0.02 -0.05 -0.05   -0.00  0.00  0.00   -0.01 -0.06  0.07   
      3   O               -0.00  0.00 -0.00   -0.00 -0.00 -0.00   -0.00  0.00 -0.00   
      4   H               -0.01  0.04 -0.02   -0.05  0.54 -0.27   -0.00 -0.06  0.03   
      5   H               -0.03 -0.04 -0.03   -0.35 -0.36 -0.25   -0.01 -0.01 -0.01   
      6   H               -0.01  0.01  0.03   -0.15  0.05  0.54   -0.01  0.01  0.06   
      7   H               -0.20  0.09  0.80    0.01 -0.00 -0.06    0.13 -0.06 -0.52   
      8   H               -0.03  0.49 -0.24    0.00 -0.04  0.02   -0.05  0.75 -0.36   
      9   H                0.00  0.01  0.01    0.00  0.00 -0.00    0.01 -0.01  0.01   

  Vibration                       25                  26                  27          
  Freq [cm^-1]                3750.0279           3759.2261           4224.2915       
  Irrep                           A                   A                   A           
  Reduced mass [u]              1.1088              1.1094              1.0677        
  Force const [mDyne/A]         9.1866              9.2373             11.2257        
  Turning point v=0 [a0]        0.1702              0.1699              0.1634        
  RMS dev v=0 [a0 u^1/2]        0.1267              0.1265              0.1194        
  IR activ [km/mol]             1.6665              0.6298             26.3052        
  Char temp [K]               5395.4553           5408.6894           6077.8149       
  ----------------------------------------------------------------------------------
      1   C               -0.03 -0.08  0.04   -0.02 -0.04 -0.09   -0.00  0.00  0.00   
      2   C               -0.00 -0.00  0.01    0.00  0.00 -0.00    0.00  0.00  0.00   
      3   O                0.00  0.00 -0.00    0.00  0.00  0.00    0.00 -0.06  0.03   
      4   H               -0.07  0.70 -0.35    0.01 -0.08  0.03   -0.00  0.00 -0.00   
      5   H                0.31  0.32  0.23    0.40  0.42  0.29    0.00  0.00  0.00   
      6   H                0.09 -0.04 -0.33   -0.20  0.07  0.72    0.00 -0.00 -0.00   
      7   H                0.01 -0.00 -0.04   -0.01  0.01  0.04    0.00  0.00 -0.01   
      8   H               -0.01  0.06 -0.03    0.00 -0.02  0.01   -0.00  0.01 -0.01   
      9   H                0.00 -0.00  0.00    0.00  0.00 -0.00   -0.07  0.88 -0.46   

  ==> Thermochemistry Components <==

  Entropy, S
    Electronic S                             0.000 [cal/(mol K)]        0.000 [J/(mol K)]       0.00000000 [mEh/K] (multiplicity = 1)
    Translational S                         37.406 [cal/(mol K)]      156.507 [J/(mol K)]       0.05961029 [mEh/K] (mol. weight = 46.0419 [u], P = 101325.00 [Pa])
    Rotational S                            22.405 [cal/(mol K)]       93.742 [J/(mol K)]       0.03570451 [mEh/K] (symmetry no. = 1)
    Vibrational S                            3.996 [cal/(mol K)]       16.717 [J/(mol K)]       0.00636726 [mEh/K]
  Total S                                   63.806 [cal/(mol K)]      266.966 [J/(mol K)]       0.10168206 [mEh/K]
  Correction S                               0.000 [cal/(mol K)]        0.000 [J/(mol K)]       0.00000000 [mEh/K]

  Constant volume heat capacity, Cv
    Electronic Cv                            0.000 [cal/(mol K)]        0.000 [J/(mol K)]       0.00000000 [mEh/K]
    Translational Cv                         2.981 [cal/(mol K)]       12.472 [J/(mol K)]       0.00475022 [mEh/K]
    Rotational Cv                            2.981 [cal/(mol K)]       12.472 [J/(mol K)]       0.00475022 [mEh/K]
    Vibrational Cv                           6.133 [cal/(mol K)]       25.660 [J/(mol K)]       0.00977325 [mEh/K]
  Total Cv                                  12.094 [cal/(mol K)]       50.603 [J/(mol K)]       0.01927368 [mEh/K]
  Correction Cv                              0.000 [cal/(mol K)]        0.000 [J/(mol K)]       0.00000000 [mEh/K]

  Constant pressure heat capacity, Cp
    Electronic Cp                            0.000 [cal/(mol K)]        0.000 [J/(mol K)]       0.00000000 [mEh/K]
    Translational Cp                         4.968 [cal/(mol K)]       20.786 [J/(mol K)]       0.00791703 [mEh/K]
    Rotational Cp                            2.981 [cal/(mol K)]       12.472 [J/(mol K)]       0.00475022 [mEh/K]
    Vibrational Cp                           6.133 [cal/(mol K)]       25.660 [J/(mol K)]       0.00977325 [mEh/K]
  Total Cp                                  14.082 [cal/(mol K)]       58.918 [J/(mol K)]       0.02244050 [mEh/K]
  Correction Cp                              0.000 [cal/(mol K)]        0.000 [J/(mol K)]       0.00000000 [mEh/K]

  ==> Thermochemistry Energy Analysis <==

  Raw electronic energy, E_e
  Total E_e, Electronic energy at well bottom                                          -152.13339334 [Eh]

  Zero-point vibrational energy, ZPVE = Sum_i omega_i / 2,  E_0 = E_e + ZPVE
    Vibrational ZPVE                        59.482 [kcal/mol]      248.874 [kJ/mol]       0.09479118 [Eh]       20804.259 [cm^-1]
  Correction ZPVE to E_e                    59.482 [kcal/mol]      248.874 [kJ/mol]       0.09479118 [Eh]       20804.259 [cm^-1]
  Total E_0, Enthalpy at 0 [K]                                                         -152.03860216 [Eh]
  *** Absolute enthalpy, not an enthalpy of formation ***

  Thermal (internal) energy, E (includes ZPVE and finite-temperature corrections)
    Electronic contrib to E beyond E_e       0.000 [kcal/mol]        0.000 [kJ/mol]       0.00000000 [Eh]
    Translational contrib to E               0.889 [kcal/mol]        3.718 [kJ/mol]       0.00141628 [Eh]
    Rotational contrib to E                  0.889 [kcal/mol]        3.718 [kJ/mol]       0.00141628 [Eh]
    Vibrational contrib to E                60.253 [kcal/mol]      252.098 [kJ/mol]       0.09601899 [Eh]
  Correction E                              62.030 [kcal/mol]      259.535 [kJ/mol]       0.09885155 [Eh]
  Total E, Thermal (internal) energy at  298.15 [K]                                    -152.03454179 [Eh]

  Enthalpy, H_trans = E_trans + k_B * T = E_trans + P * V
    Electronic contrib to H beyond E_e       0.000 [kcal/mol]        0.000 [kJ/mol]       0.00000000 [Eh]
    Translational contrib to H               1.481 [kcal/mol]        6.197 [kJ/mol]       0.00236046 [Eh]
    Rotational contrib to H                  0.889 [kcal/mol]        3.718 [kJ/mol]       0.00141628 [Eh]
    Vibrational contrib to H                60.253 [kcal/mol]      252.098 [kJ/mol]       0.09601899 [Eh]
  Correction H                              62.623 [kcal/mol]      262.014 [kJ/mol]       0.09979573 [Eh]
  Total H, Enthalpy at  298.15 [K]                                                     -152.03359761 [Eh]
  *** Absolute enthalpy, not an enthalpy of formation ***

  Gibbs free energy, G = H - T * S
    Electronic contrib to G beyond E_e       0.000 [kcal/mol]        0.000 [kJ/mol]       0.00000000 [Eh]
    Translational contrib to G              -9.671 [kcal/mol]      -40.465 [kJ/mol]      -0.01541235 [Eh]
    Rotational contrib to G                 -5.791 [kcal/mol]      -24.231 [kJ/mol]      -0.00922902 [Eh]
    Vibrational contrib to G                59.062 [kcal/mol]      247.114 [kJ/mol]       0.09412059 [Eh]
  Correction G                              43.599 [kcal/mol]      182.418 [kJ/mol]       0.06947923 [Eh]
  Total G, Gibbs energy at  298.15 [K]                                                 -152.06391412 [Eh]
  *** Absolute Gibbs energy, not a free energy of formation ***

