
         ----------------------------------------------------------
                                   FINDIF
                     R. A. King and Jonathon Misiewicz
         ----------------------------------------------------------

  Using finite-differences of gradients to determine vibrational frequencies and 
  normal modes. Resulting frequencies are only valid at stationary points.
    Generating geometries for use with 3-point formula.
    Displacement size will be 5.00e-03.
    Number of atoms is 3.
    Number of irreps is 2.
    Number of SALCs is 6.
    Translations projected? 1. Rotations projected? 0.
    Index of SALCs per irrep:
      1 :  0  1  2  3 
      2 :  4  5 
    Number of SALCs per irrep:
      Irrep 1: 4
      Irrep 2: 2
    Number of geometries (including reference) is 11.
    Number of displacements per irrep:
      Irrep 1: 8
      Irrep 2: 2
 11 displacements needed ...

  //>>>>>>>>>>>>>>>>>>>>>>>>>>>>>>>>>>>//
  //    FiniteDifference Computations  //
  //<<<<<<<<<<<<<<<<<<<<<<<<<<<<<<<<<<<//


    -----------------------------------------------------------------------
          Psi4: An Open-Source Ab Initio Electronic Structure Package
                               Psi4 1.9.1 release

                         Git: Rev {} zzzzzzz 


    D. G. A. Smith, L. A. Burns, A. C. Simmonett, R. M. Parrish,
    M. C. Schieber, R. Galvelis, P. Kraus, H. Kruse, R. Di Remigio,
    A. Alenaizan, A. M. James, S. Lehtola, J. P. Misiewicz, M. Scheurer,
    R. A. Shaw, J. B. Schriber, Y. Xie, Z. L. Glick, D. A. Sirianni,
    J. S. O'Brien, J. M. Waldrop, A. Kumar, E. G. Hohenstein,
    B. P. Pritchard, B. R. Brooks, H. F. Schaefer III, A. Yu. Sokolov,
    K. Patkowski, A. E. DePrince III, U. Bozkaya, R. A. King,
    F. A. Evangelista, J. M. Turney, T. D. Crawford, C. D. Sherrill,
    J. Chem. Phys. 152(18) 184108 (2020). https://doi.org/10.1063/5.0006002

                            Additional Code Authors
    E. T. Seidl, C. L. Janssen, E. F. Valeev, M. L. Leininger,
    J. F. Gonthier, R. M. Richard, H. R. McAlexander, M. Saitow, X. Wang,
    P. Verma, M. H. Lechner, A. Jiang, S. Behnle, A. G. Heide,
    M. F. Herbst, and D. L. Poole

             Previous Authors, Complete List of Code Contributors,
                       and Citations for Specific Modules
    https://github.com/psi4/psi4/blob/master/codemeta.json
    https://github.com/psi4/psi4/graphs/contributors
    http://psicode.org/psi4manual/master/introduction.html#citing-psifour

    -----------------------------------------------------------------------


    Psi4 started on: Friday, 16 May 2025 01:42PM

    Process ID: 25464
    Host:       LenovoHugo
    PSIDATADIR: C:\Users\hugop\anaconda3\envs\ppchem\Library\share\psi4
    Memory:     1.9 GiB
    Threads:    1
    
  ==> Input QCSchema <==

--------------------------------------------------------------------------
{'driver': 'gradient',
 'extras': {'psiapi': True, 'wfn_qcvars_only': True},
 'id': None,
 'keywords': {'PARENT_SYMMETRY': 'Cs(Z)',
              'SCF__D_CONVERGENCE': 1e-08,
              'SCF__E_CONVERGENCE': 1e-08,
              'SCF__INTS_TOLERANCE': 1e-12,
              'function_kwargs': {}},
 'model': {'basis': 'sto-3g', 'method': 'hf'},
 'molecule': {'atom_labels': ['', '', ''],
              'atomic_numbers': [8, 1, 1],
              'extras': {},
              'fix_com': True,
              'fix_orientation': True,
              'fragment_charges': [0.0],
              'fragment_multiplicities': [1],
              'fragments': [[0, 1, 2]],
              'geometry': [0.0029686543668161385, 0.1344272934667812, 0.0, -1.4556642859487314, -1.0350990029739282,
                           0.0, 1.4085495868554057, -1.098359695490261, 0.0],
              'mass_numbers': [16, 1, 1],
              'masses': [15.99491461957, 1.00782503223, 1.00782503223],
              'molecular_charge': 0.0,
              'molecular_multiplicity': 1,
              'name': 'H2O',
              'provenance': {'creator': 'QCElemental',
                             'routine': 'qcelemental.molparse.from_string',
                             'version': '0.29.0'},
              'real': [True, True, True],
              'schema_name': 'qcschema_molecule',
              'schema_version': 2,
              'symbols': ['O', 'H', 'H'],
              'validated': True},
 'protocols': {'stdout': True},
 'provenance': {'creator': 'QCElemental', 'routine': 'qcelemental.models.results', 'version': '0.29.0'},
 'schema_name': 'qcschema_input',
 'schema_version': 1}
--------------------------------------------------------------------------

Scratch directory: C:\Users\hugop\AppData\Local\Temp/
gradient() will perform analytic gradient computation.
   => Libint2 <=

    Primary   basis highest AM E, G, H:  6, 6, -
    Auxiliary basis highest AM E, G, H:  7, 7, -
    Onebody   basis highest AM E, G, H:  -, -, -
    Solid Harmonics ordering:            Gaussian

*** tstart() called on LenovoHugo
*** at Fri May 16 13:49:49 2025

   => Loading Basis Set <=

    Name: STO-3G
    Role: ORBITAL
    Keyword: BASIS
    atoms 1   entry O          line    81 file C:\Users\hugop\anaconda3\envs\ppchem\Library\share\psi4\basis\sto-3g.gbs 
    atoms 2-3 entry H          line    19 file C:\Users\hugop\anaconda3\envs\ppchem\Library\share\psi4\basis\sto-3g.gbs 


         ---------------------------------------------------------
                                   SCF
               by Justin Turney, Rob Parrish, Andy Simmonett
                          and Daniel G. A. Smith
                              RHF Reference
                        1 Threads,   1907 MiB Core
         ---------------------------------------------------------

  ==> Geometry <==

    Molecular point group: cs
    Full point group: Cs

    Geometry (in Bohr), charge = 0, multiplicity = 1:

       Center              X                  Y                   Z               Mass       
    ------------   -----------------  -----------------  -----------------  -----------------
         O            0.002968654367     0.134427293467     0.000000000000    15.994914619570
         H           -1.455664285949    -1.035099002974     0.000000000000     1.007825032230
         H            1.408549586855    -1.098359695490     0.000000000000     1.007825032230

  Running in cs symmetry.

  Rotational constants: A =     23.29772  B =     14.55514  C =      8.95841 [cm^-1]
  Rotational constants: A = 698448.12502  B = 436352.12564  C = 268566.49337 [MHz]
  Nuclear repulsion =    8.907021941817952

  Charge       = 0
  Multiplicity = 1
  Electrons    = 10
  Nalpha       = 5
  Nbeta        = 5

  ==> Algorithm <==

  SCF Algorithm Type is DF.
  DIIS enabled.
  MOM disabled.
  Fractional occupation disabled.
  Guess Type is SAD.
  Energy threshold   = 1.00e-08
  Density threshold  = 1.00e-08
  Integral threshold = 1.00e-12

  ==> Primary Basis <==

  Basis Set: STO-3G
    Blend: STO-3G
    Number of shells: 5
    Number of basis functions: 7
    Number of Cartesian functions: 7
    Spherical Harmonics?: true
    Max angular momentum: 1

   => Loading Basis Set <=

    Name: (STO-3G AUX)
    Role: JKFIT
    Keyword: DF_BASIS_SCF
    atoms 1   entry O          line   318 file C:\Users\hugop\anaconda3\envs\ppchem\Library\share\psi4\basis\def2-universal-jkfit.gbs 
    atoms 2-3 entry H          line    18 file C:\Users\hugop\anaconda3\envs\ppchem\Library\share\psi4\basis\def2-universal-jkfit.gbs 

  ==> Integral Setup <==

  DFHelper Memory: AOs need 0.000 GiB; user supplied 1.397 GiB. 
  Using in-core AOs.

  ==> MemDFJK: Density-Fitted J/K Matrices <==

    J tasked:                   Yes
    K tasked:                   Yes
    wK tasked:                   No
    OpenMP threads:               1
    Memory [MiB]:              1430
    Algorithm:                 Core
    Schwarz Cutoff:           1E-12
    Mask sparsity (%):       0.0000
    Fitting Condition:        1E-10

   => Auxiliary Basis Set <=

  Basis Set: (STO-3G AUX)
    Blend: DEF2-UNIVERSAL-JKFIT
    Number of shells: 37
    Number of basis functions: 113
    Number of Cartesian functions: 133
    Spherical Harmonics?: true
    Max angular momentum: 4

  Minimum eigenvalue in the overlap matrix is 3.6314190460E-01.
  Reciprocal condition number of the overlap matrix is 1.9051159412E-01.
    Using symmetric orthogonalization.

  ==> Pre-Iterations <==

  SCF Guess: Superposition of Atomic Densities via on-the-fly atomic UHF (no occupation information).

   -------------------------
    Irrep   Nso     Nmo    
   -------------------------
     A'         6       6 
     A"         1       1 
   -------------------------
    Total       7       7
   -------------------------

  ==> Iterations <==

                           Total Energy        Delta E     RMS |[F,P]|

   @DF-RHF iter SAD:   -74.14847553552829   -7.41485e+01   0.00000e+00 
   @DF-RHF iter   1:   -74.91096261556480   -7.62487e-01   4.25397e-02 ADIIS/DIIS
   @DF-RHF iter   2:   -74.96492451880958   -5.39619e-02   6.83075e-03 ADIIS/DIIS
   @DF-RHF iter   3:   -74.96592236439822   -9.97846e-04   1.45734e-03 ADIIS/DIIS
   @DF-RHF iter   4:   -74.96598925200271   -6.68876e-05   1.21954e-04 ADIIS/DIIS
   @DF-RHF iter   5:   -74.96599010085318   -8.48850e-07   1.38952e-05 DIIS
   @DF-RHF iter   6:   -74.96599011045626   -9.60308e-09   1.94484e-07 DIIS
   @DF-RHF iter   7:   -74.96599011045789   -1.63425e-12   7.72738e-10 DIIS
  Energy and wave function converged.


  ==> Post-Iterations <==

    Orbital Energies [Eh]
    ---------------------

    Doubly Occupied:                                                      

       1Ap   -20.251792     2Ap    -1.257596     3Ap    -0.593879  
       4Ap    -0.459743     1App   -0.392622  

    Virtual:                                                              

       5Ap     0.581880     6Ap     0.692772  

    Final Occupation by Irrep:
             Ap   App 
    DOCC [     4,    1 ]
    NA   [     4,    1 ]
    NB   [     4,    1 ]

  @DF-RHF Final Energy:   -74.96599011045789

   => Energetics <=

    Nuclear Repulsion Energy =              8.9070219418179519
    One-Electron Energy =                -121.8347581841897522
    Two-Electron Energy =                  37.9617461319138911
    Total Energy =                        -74.9659901104579092

Computation Completed


Properties will be evaluated at   0.000000,   0.000000,   0.000000 [a0]

Properties computed using the SCF density matrix


 Multipole Moments:

 ------------------------------------------------------------------------------------
     Multipole            Electronic (a.u.)      Nuclear  (a.u.)        Total (a.u.)
 ------------------------------------------------------------------------------------

 L = 1.  Multiply by 2.5417464519 to convert [e a0] to [Debye]
 Dipole X            :          0.0085188           -0.0233655           -0.0148467
 Dipole Y            :          0.3858322           -1.0580404           -0.6722082
 Dipole Z            :          0.0000000            0.0000000            0.0000000
 Magnitude           :                                                    0.6723721

 ------------------------------------------------------------------------------------

*** tstop() called on LenovoHugo at Fri May 16 13:49:50 2025
Module time:
	user time   =        nan seconds =        nan minutes
	system time =        nan seconds =        nan minutes
	total time  =          1 seconds =       0.02 minutes
Total time:
	user time   =        nan seconds =        nan minutes
	system time =        nan seconds =        nan minutes
	total time  =        455 seconds =       7.58 minutes

*** tstart() called on LenovoHugo
*** at Fri May 16 13:49:50 2025


         ------------------------------------------------------------
                                   SCF GRAD                          
                          Rob Parrish, Justin Turney,                
                       Andy Simmonett, and Alex Sokolov              
         ------------------------------------------------------------

  ==> Geometry <==

    Molecular point group: cs
    Full point group: Cs

    Geometry (in Bohr), charge = 0, multiplicity = 1:

       Center              X                  Y                   Z               Mass       
    ------------   -----------------  -----------------  -----------------  -----------------
         O            0.002968654367     0.134427293467     0.000000000000    15.994914619570
         H           -1.455664285949    -1.035099002974     0.000000000000     1.007825032230
         H            1.408549586855    -1.098359695490     0.000000000000     1.007825032230

  Nuclear repulsion =    8.907021941817952

  ==> Basis Set <==

  Basis Set: STO-3G
    Blend: STO-3G
    Number of shells: 5
    Number of basis functions: 7
    Number of Cartesian functions: 7
    Spherical Harmonics?: true
    Max angular momentum: 1

  ==> DFJKGrad: Density-Fitted SCF Gradients <==

    Gradient:                    1
    J tasked:                  Yes
    K tasked:                  Yes
    wK tasked:                  No
    OpenMP threads:              1
    Integrals threads:           1
    Memory [MiB]:             1430
    Schwarz Cutoff:          1E-12
    Fitting Condition:       1E-10

   => Auxiliary Basis Set <=

  Basis Set: (STO-3G AUX)
    Blend: DEF2-UNIVERSAL-JKFIT
    Number of shells: 37
    Number of basis functions: 113
    Number of Cartesian functions: 133
    Spherical Harmonics?: true
    Max angular momentum: 4


  -Total Gradient:
     Atom            X                  Y                   Z
    ------   -----------------  -----------------  -----------------
       1       -0.000004889305    -0.000096132136     0.000000000000
       2        0.000074893675     0.000047626040     0.000000000000
       3       -0.000070004371     0.000048506096     0.000000000000


*** tstop() called on LenovoHugo at Fri May 16 13:49:50 2025
Module time:
	user time   =        nan seconds =        nan minutes
	system time =        nan seconds =        nan minutes
	total time  =          0 seconds =       0.00 minutes
Total time:
	user time   =        nan seconds =        nan minutes
	system time =        nan seconds =        nan minutes
	total time  =        455 seconds =       7.58 minutes

    Psi4 stopped on: Friday, 16 May 2025 01:49PM
    Psi4 wall time for execution: 0:00:00.74


    -----------------------------------------------------------------------
          Psi4: An Open-Source Ab Initio Electronic Structure Package
                               Psi4 1.9.1 release

                         Git: Rev {} zzzzzzz 


    D. G. A. Smith, L. A. Burns, A. C. Simmonett, R. M. Parrish,
    M. C. Schieber, R. Galvelis, P. Kraus, H. Kruse, R. Di Remigio,
    A. Alenaizan, A. M. James, S. Lehtola, J. P. Misiewicz, M. Scheurer,
    R. A. Shaw, J. B. Schriber, Y. Xie, Z. L. Glick, D. A. Sirianni,
    J. S. O'Brien, J. M. Waldrop, A. Kumar, E. G. Hohenstein,
    B. P. Pritchard, B. R. Brooks, H. F. Schaefer III, A. Yu. Sokolov,
    K. Patkowski, A. E. DePrince III, U. Bozkaya, R. A. King,
    F. A. Evangelista, J. M. Turney, T. D. Crawford, C. D. Sherrill,
    J. Chem. Phys. 152(18) 184108 (2020). https://doi.org/10.1063/5.0006002

                            Additional Code Authors
    E. T. Seidl, C. L. Janssen, E. F. Valeev, M. L. Leininger,
    J. F. Gonthier, R. M. Richard, H. R. McAlexander, M. Saitow, X. Wang,
    P. Verma, M. H. Lechner, A. Jiang, S. Behnle, A. G. Heide,
    M. F. Herbst, and D. L. Poole

             Previous Authors, Complete List of Code Contributors,
                       and Citations for Specific Modules
    https://github.com/psi4/psi4/blob/master/codemeta.json
    https://github.com/psi4/psi4/graphs/contributors
    http://psicode.org/psi4manual/master/introduction.html#citing-psifour

    -----------------------------------------------------------------------


    Psi4 started on: Friday, 16 May 2025 01:42PM

    Process ID: 25464
    Host:       LenovoHugo
    PSIDATADIR: C:\Users\hugop\anaconda3\envs\ppchem\Library\share\psi4
    Memory:     1.9 GiB
    Threads:    1
    
  ==> Input QCSchema <==

--------------------------------------------------------------------------
{'driver': 'gradient',
 'extras': {'psiapi': True, 'wfn_qcvars_only': True},
 'id': None,
 'keywords': {'PARENT_SYMMETRY': 'Cs(Z)',
              'SCF__D_CONVERGENCE': 1e-08,
              'SCF__E_CONVERGENCE': 1e-08,
              'SCF__INTS_TOLERANCE': 1e-12,
              'function_kwargs': {'write_orbitals': False}},
 'model': {'basis': 'sto-3g', 'method': 'hf'},
 'molecule': {'atom_labels': ['', '', ''],
              'atomic_numbers': [8, 1, 1],
              'extras': {},
              'fix_com': True,
              'fix_orientation': True,
              'fragment_charges': [0.0],
              'fragment_multiplicities': [1],
              'fragments': [[0, 1, 2]],
              'geometry': [0.0025504168909054035, 0.1344272934667812, 0.0, -1.4523454198241748, -1.0350990029739282,
                           0.0, 1.4118684529799623, -1.098359695490261, 0.0],
              'mass_numbers': [16, 1, 1],
              'masses': [15.99491461957, 1.00782503223, 1.00782503223],
              'molecular_charge': 0.0,
              'molecular_multiplicity': 1,
              'name': 'H2O',
              'provenance': {'creator': 'QCElemental',
                             'routine': 'qcelemental.molparse.from_string',
                             'version': '0.29.0'},
              'real': [True, True, True],
              'schema_name': 'qcschema_molecule',
              'schema_version': 2,
              'symbols': ['O', 'H', 'H'],
              'validated': True},
 'protocols': {'stdout': True},
 'provenance': {'creator': 'QCElemental', 'routine': 'qcelemental.models.results', 'version': '0.29.0'},
 'schema_name': 'qcschema_input',
 'schema_version': 1}
--------------------------------------------------------------------------

Scratch directory: C:\Users\hugop\AppData\Local\Temp/
gradient() will perform analytic gradient computation.
   => Libint2 <=

    Primary   basis highest AM E, G, H:  6, 6, -
    Auxiliary basis highest AM E, G, H:  7, 7, -
    Onebody   basis highest AM E, G, H:  -, -, -
    Solid Harmonics ordering:            Gaussian

*** tstart() called on LenovoHugo
*** at Fri May 16 13:49:50 2025

   => Loading Basis Set <=

    Name: STO-3G
    Role: ORBITAL
    Keyword: BASIS
    atoms 1   entry O          line    81 file C:\Users\hugop\anaconda3\envs\ppchem\Library\share\psi4\basis\sto-3g.gbs 
    atoms 2-3 entry H          line    19 file C:\Users\hugop\anaconda3\envs\ppchem\Library\share\psi4\basis\sto-3g.gbs 


         ---------------------------------------------------------
                                   SCF
               by Justin Turney, Rob Parrish, Andy Simmonett
                          and Daniel G. A. Smith
                              RHF Reference
                        1 Threads,   1907 MiB Core
         ---------------------------------------------------------

  ==> Geometry <==

    Molecular point group: cs
    Full point group: Cs

    Geometry (in Bohr), charge = 0, multiplicity = 1:

       Center              X                  Y                   Z               Mass       
    ------------   -----------------  -----------------  -----------------  -----------------
         O            0.002550416891     0.134427293467     0.000000000000    15.994914619570
         H           -1.452345419824    -1.035099002974     0.000000000000     1.007825032230
         H            1.411868452980    -1.098359695490     0.000000000000     1.007825032230

  Running in cs symmetry.

  Rotational constants: A =     23.30130  B =     14.55491  C =      8.95885 [cm^-1]
  Rotational constants: A = 698555.34292  B = 436345.08937  C = 268579.67877 [MHz]
  Nuclear repulsion =    8.907277713474189

  Charge       = 0
  Multiplicity = 1
  Electrons    = 10
  Nalpha       = 5
  Nbeta        = 5

  ==> Algorithm <==

  SCF Algorithm Type is DF.
  DIIS enabled.
  MOM disabled.
  Fractional occupation disabled.
  Guess Type is SAD.
  Energy threshold   = 1.00e-08
  Density threshold  = 1.00e-08
  Integral threshold = 1.00e-12

  ==> Primary Basis <==

  Basis Set: STO-3G
    Blend: STO-3G
    Number of shells: 5
    Number of basis functions: 7
    Number of Cartesian functions: 7
    Spherical Harmonics?: true
    Max angular momentum: 1

   => Loading Basis Set <=

    Name: (STO-3G AUX)
    Role: JKFIT
    Keyword: DF_BASIS_SCF
    atoms 1   entry O          line   318 file C:\Users\hugop\anaconda3\envs\ppchem\Library\share\psi4\basis\def2-universal-jkfit.gbs 
    atoms 2-3 entry H          line    18 file C:\Users\hugop\anaconda3\envs\ppchem\Library\share\psi4\basis\def2-universal-jkfit.gbs 

  ==> Integral Setup <==

  DFHelper Memory: AOs need 0.000 GiB; user supplied 1.397 GiB. 
  Using in-core AOs.

  ==> MemDFJK: Density-Fitted J/K Matrices <==

    J tasked:                   Yes
    K tasked:                   Yes
    wK tasked:                   No
    OpenMP threads:               1
    Memory [MiB]:              1430
    Algorithm:                 Core
    Schwarz Cutoff:           1E-12
    Mask sparsity (%):       0.0000
    Fitting Condition:        1E-10

   => Auxiliary Basis Set <=

  Basis Set: (STO-3G AUX)
    Blend: DEF2-UNIVERSAL-JKFIT
    Number of shells: 37
    Number of basis functions: 113
    Number of Cartesian functions: 133
    Spherical Harmonics?: true
    Max angular momentum: 4

  Minimum eigenvalue in the overlap matrix is 3.6310865644E-01.
  Reciprocal condition number of the overlap matrix is 1.9049185550E-01.
    Using symmetric orthogonalization.

  ==> Pre-Iterations <==

  SCF Guess: Superposition of Atomic Densities via on-the-fly atomic UHF (no occupation information).

   -------------------------
    Irrep   Nso     Nmo    
   -------------------------
     A'         6       6 
     A"         1       1 
   -------------------------
    Total       7       7
   -------------------------

  ==> Iterations <==

                           Total Energy        Delta E     RMS |[F,P]|

   @DF-RHF iter SAD:   -74.14854108096878   -7.41485e+01   0.00000e+00 
   @DF-RHF iter   1:   -74.91096157766748   -7.62420e-01   4.25383e-02 ADIIS/DIIS
   @DF-RHF iter   2:   -74.96491905554370   -5.39575e-02   6.83010e-03 ADIIS/DIIS
   @DF-RHF iter   3:   -74.96591672956575   -9.97674e-04   1.45734e-03 ADIIS/DIIS
   @DF-RHF iter   4:   -74.96598361793679   -6.68884e-05   1.21973e-04 ADIIS/DIIS
   @DF-RHF iter   5:   -74.96598446704333   -8.49107e-07   1.38912e-05 DIIS
   @DF-RHF iter   6:   -74.96598447663986   -9.59653e-09   1.96928e-07 DIIS
   @DF-RHF iter   7:   -74.96598447664154   -1.67688e-12   1.05423e-08 DIIS
   @DF-RHF iter   8:   -74.96598447664154    0.00000e+00   4.52565e-10 DIIS
  Energy and wave function converged.


  ==> Post-Iterations <==

    Orbital Energies [Eh]
    ---------------------

    Doubly Occupied:                                                      

       1Ap   -20.251785     2Ap    -1.257608     3Ap    -0.593899  
       4Ap    -0.459737     1App   -0.392621  

    Virtual:                                                              

       5Ap     0.581880     6Ap     0.692836  

    Final Occupation by Irrep:
             Ap   App 
    DOCC [     4,    1 ]
    NA   [     4,    1 ]
    NB   [     4,    1 ]

  @DF-RHF Final Energy:   -74.96598447664154

   => Energetics <=

    Nuclear Repulsion Energy =              8.9072777134741887
    One-Electron Energy =                -121.8352237066995940
    Two-Electron Energy =                  37.9619615165838695
    Total Energy =                        -74.9659844766415375

Computation Completed


Properties will be evaluated at   0.000000,   0.000000,   0.000000 [a0]

Properties computed using the SCF density matrix


 Multipole Moments:

 ------------------------------------------------------------------------------------
     Multipole            Electronic (a.u.)      Nuclear  (a.u.)        Total (a.u.)
 ------------------------------------------------------------------------------------

 L = 1.  Multiply by 2.5417464519 to convert [e a0] to [Debye]
 Dipole X            :          0.0053423           -0.0200736           -0.0147313
 Dipole Y            :          0.3858212           -1.0580404           -0.6722191
 Dipole Z            :          0.0000000            0.0000000            0.0000000
 Magnitude           :                                                    0.6723805

 ------------------------------------------------------------------------------------

*** tstop() called on LenovoHugo at Fri May 16 13:49:51 2025
Module time:
	user time   =        nan seconds =        nan minutes
	system time =        nan seconds =        nan minutes
	total time  =          1 seconds =       0.02 minutes
Total time:
	user time   =        nan seconds =        nan minutes
	system time =        nan seconds =        nan minutes
	total time  =        456 seconds =       7.60 minutes

*** tstart() called on LenovoHugo
*** at Fri May 16 13:49:51 2025


         ------------------------------------------------------------
                                   SCF GRAD                          
                          Rob Parrish, Justin Turney,                
                       Andy Simmonett, and Alex Sokolov              
         ------------------------------------------------------------

  ==> Geometry <==

    Molecular point group: cs
    Full point group: Cs

    Geometry (in Bohr), charge = 0, multiplicity = 1:

       Center              X                  Y                   Z               Mass       
    ------------   -----------------  -----------------  -----------------  -----------------
         O            0.002550416891     0.134427293467     0.000000000000    15.994914619570
         H           -1.452345419824    -1.035099002974     0.000000000000     1.007825032230
         H            1.411868452980    -1.098359695490     0.000000000000     1.007825032230

  Nuclear repulsion =    8.907277713474189

  ==> Basis Set <==

  Basis Set: STO-3G
    Blend: STO-3G
    Number of shells: 5
    Number of basis functions: 7
    Number of Cartesian functions: 7
    Spherical Harmonics?: true
    Max angular momentum: 1

  ==> DFJKGrad: Density-Fitted SCF Gradients <==

    Gradient:                    1
    J tasked:                  Yes
    K tasked:                  Yes
    wK tasked:                  No
    OpenMP threads:              1
    Integrals threads:           1
    Memory [MiB]:             1430
    Schwarz Cutoff:          1E-12
    Fitting Condition:       1E-10

   => Auxiliary Basis Set <=

  Basis Set: (STO-3G AUX)
    Blend: DEF2-UNIVERSAL-JKFIT
    Number of shells: 37
    Number of basis functions: 113
    Number of Cartesian functions: 133
    Spherical Harmonics?: true
    Max angular momentum: 4


  -Total Gradient:
     Atom            X                  Y                   Z
    ------   -----------------  -----------------  -----------------
       1       -0.003010449667    -0.000094509730     0.000000000000
       2        0.001627565544     0.001306283927     0.000000000000
       3        0.001382884123    -0.001211774196     0.000000000000


*** tstop() called on LenovoHugo at Fri May 16 13:49:51 2025
Module time:
	user time   =        nan seconds =        nan minutes
	system time =        nan seconds =        nan minutes
	total time  =          0 seconds =       0.00 minutes
Total time:
	user time   =        nan seconds =        nan minutes
	system time =        nan seconds =        nan minutes
	total time  =        456 seconds =       7.60 minutes

    Psi4 stopped on: Friday, 16 May 2025 01:49PM
    Psi4 wall time for execution: 0:00:00.75


    -----------------------------------------------------------------------
          Psi4: An Open-Source Ab Initio Electronic Structure Package
                               Psi4 1.9.1 release

                         Git: Rev {} zzzzzzz 


    D. G. A. Smith, L. A. Burns, A. C. Simmonett, R. M. Parrish,
    M. C. Schieber, R. Galvelis, P. Kraus, H. Kruse, R. Di Remigio,
    A. Alenaizan, A. M. James, S. Lehtola, J. P. Misiewicz, M. Scheurer,
    R. A. Shaw, J. B. Schriber, Y. Xie, Z. L. Glick, D. A. Sirianni,
    J. S. O'Brien, J. M. Waldrop, A. Kumar, E. G. Hohenstein,
    B. P. Pritchard, B. R. Brooks, H. F. Schaefer III, A. Yu. Sokolov,
    K. Patkowski, A. E. DePrince III, U. Bozkaya, R. A. King,
    F. A. Evangelista, J. M. Turney, T. D. Crawford, C. D. Sherrill,
    J. Chem. Phys. 152(18) 184108 (2020). https://doi.org/10.1063/5.0006002

                            Additional Code Authors
    E. T. Seidl, C. L. Janssen, E. F. Valeev, M. L. Leininger,
    J. F. Gonthier, R. M. Richard, H. R. McAlexander, M. Saitow, X. Wang,
    P. Verma, M. H. Lechner, A. Jiang, S. Behnle, A. G. Heide,
    M. F. Herbst, and D. L. Poole

             Previous Authors, Complete List of Code Contributors,
                       and Citations for Specific Modules
    https://github.com/psi4/psi4/blob/master/codemeta.json
    https://github.com/psi4/psi4/graphs/contributors
    http://psicode.org/psi4manual/master/introduction.html#citing-psifour

    -----------------------------------------------------------------------


    Psi4 started on: Friday, 16 May 2025 01:42PM

    Process ID: 25464
    Host:       LenovoHugo
    PSIDATADIR: C:\Users\hugop\anaconda3\envs\ppchem\Library\share\psi4
    Memory:     1.9 GiB
    Threads:    1
    
  ==> Input QCSchema <==

--------------------------------------------------------------------------
{'driver': 'gradient',
 'extras': {'psiapi': True, 'wfn_qcvars_only': True},
 'id': None,
 'keywords': {'PARENT_SYMMETRY': 'Cs(Z)',
              'SCF__D_CONVERGENCE': 1e-08,
              'SCF__E_CONVERGENCE': 1e-08,
              'SCF__INTS_TOLERANCE': 1e-12,
              'function_kwargs': {'write_orbitals': False}},
 'model': {'basis': 'sto-3g', 'method': 'hf'},
 'molecule': {'atom_labels': ['', '', ''],
              'atomic_numbers': [8, 1, 1],
              'extras': {},
              'fix_com': True,
              'fix_orientation': True,
              'fragment_charges': [0.0],
              'fragment_multiplicities': [1],
              'fragments': [[0, 1, 2]],
              'geometry': [0.0033868918427268735, 0.1344272934667812, 0.0, -1.458983152073288, -1.0350990029739282, 0.0,
                           1.405230720730849, -1.098359695490261, 0.0],
              'mass_numbers': [16, 1, 1],
              'masses': [15.99491461957, 1.00782503223, 1.00782503223],
              'molecular_charge': 0.0,
              'molecular_multiplicity': 1,
              'name': 'H2O',
              'provenance': {'creator': 'QCElemental',
                             'routine': 'qcelemental.molparse.from_string',
                             'version': '0.29.0'},
              'real': [True, True, True],
              'schema_name': 'qcschema_molecule',
              'schema_version': 2,
              'symbols': ['O', 'H', 'H'],
              'validated': True},
 'protocols': {'stdout': True},
 'provenance': {'creator': 'QCElemental', 'routine': 'qcelemental.models.results', 'version': '0.29.0'},
 'schema_name': 'qcschema_input',
 'schema_version': 1}
--------------------------------------------------------------------------

Scratch directory: C:\Users\hugop\AppData\Local\Temp/
gradient() will perform analytic gradient computation.
   => Libint2 <=

    Primary   basis highest AM E, G, H:  6, 6, -
    Auxiliary basis highest AM E, G, H:  7, 7, -
    Onebody   basis highest AM E, G, H:  -, -, -
    Solid Harmonics ordering:            Gaussian

*** tstart() called on LenovoHugo
*** at Fri May 16 13:49:51 2025

   => Loading Basis Set <=

    Name: STO-3G
    Role: ORBITAL
    Keyword: BASIS
    atoms 1   entry O          line    81 file C:\Users\hugop\anaconda3\envs\ppchem\Library\share\psi4\basis\sto-3g.gbs 
    atoms 2-3 entry H          line    19 file C:\Users\hugop\anaconda3\envs\ppchem\Library\share\psi4\basis\sto-3g.gbs 


         ---------------------------------------------------------
                                   SCF
               by Justin Turney, Rob Parrish, Andy Simmonett
                          and Daniel G. A. Smith
                              RHF Reference
                        1 Threads,   1907 MiB Core
         ---------------------------------------------------------

  ==> Geometry <==

    Molecular point group: cs
    Full point group: Cs

    Geometry (in Bohr), charge = 0, multiplicity = 1:

       Center              X                  Y                   Z               Mass       
    ------------   -----------------  -----------------  -----------------  -----------------
         O            0.003386891843     0.134427293467     0.000000000000    15.994914619570
         H           -1.458983152073    -1.035099002974     0.000000000000     1.007825032230
         H            1.405230720731    -1.098359695490     0.000000000000     1.007825032230

  Running in cs symmetry.

  Rotational constants: A =     23.29490  B =     14.55491  C =      8.95791 [cm^-1]
  Rotational constants: A = 698363.41622  B = 436345.11202  C = 268551.31119 [MHz]
  Nuclear repulsion =    8.906792186227223

  Charge       = 0
  Multiplicity = 1
  Electrons    = 10
  Nalpha       = 5
  Nbeta        = 5

  ==> Algorithm <==

  SCF Algorithm Type is DF.
  DIIS enabled.
  MOM disabled.
  Fractional occupation disabled.
  Guess Type is SAD.
  Energy threshold   = 1.00e-08
  Density threshold  = 1.00e-08
  Integral threshold = 1.00e-12

  ==> Primary Basis <==

  Basis Set: STO-3G
    Blend: STO-3G
    Number of shells: 5
    Number of basis functions: 7
    Number of Cartesian functions: 7
    Spherical Harmonics?: true
    Max angular momentum: 1

   => Loading Basis Set <=

    Name: (STO-3G AUX)
    Role: JKFIT
    Keyword: DF_BASIS_SCF
    atoms 1   entry O          line   318 file C:\Users\hugop\anaconda3\envs\ppchem\Library\share\psi4\basis\def2-universal-jkfit.gbs 
    atoms 2-3 entry H          line    18 file C:\Users\hugop\anaconda3\envs\ppchem\Library\share\psi4\basis\def2-universal-jkfit.gbs 

  ==> Integral Setup <==

  DFHelper Memory: AOs need 0.000 GiB; user supplied 1.397 GiB. 
  Using in-core AOs.

  ==> MemDFJK: Density-Fitted J/K Matrices <==

    J tasked:                   Yes
    K tasked:                   Yes
    wK tasked:                   No
    OpenMP threads:               1
    Memory [MiB]:              1430
    Algorithm:                 Core
    Schwarz Cutoff:           1E-12
    Mask sparsity (%):       0.0000
    Fitting Condition:        1E-10

   => Auxiliary Basis Set <=

  Basis Set: (STO-3G AUX)
    Blend: DEF2-UNIVERSAL-JKFIT
    Number of shells: 37
    Number of basis functions: 113
    Number of Cartesian functions: 133
    Spherical Harmonics?: true
    Max angular momentum: 4

  Minimum eigenvalue in the overlap matrix is 3.6314567082E-01.
  Reciprocal condition number of the overlap matrix is 1.9051549244E-01.
    Using symmetric orthogonalization.

  ==> Pre-Iterations <==

  SCF Guess: Superposition of Atomic Densities via on-the-fly atomic UHF (no occupation information).

   -------------------------
    Irrep   Nso     Nmo    
   -------------------------
     A'         6       6 
     A"         1       1 
   -------------------------
    Total       7       7
   -------------------------

  ==> Iterations <==

                           Total Energy        Delta E     RMS |[F,P]|

   @DF-RHF iter SAD:   -74.14841620758864   -7.41484e+01   0.00000e+00 
   @DF-RHF iter   1:   -74.91095144169671   -7.62535e-01   4.25414e-02 ADIIS/DIIS
   @DF-RHF iter   2:   -74.96491872805062   -5.39673e-02   6.83154e-03 ADIIS/DIIS
   @DF-RHF iter   3:   -74.96591677118334   -9.98043e-04   1.45734e-03 ADIIS/DIIS
   @DF-RHF iter   4:   -74.96598365704851   -6.68859e-05   1.21932e-04 ADIIS/DIIS
   @DF-RHF iter   5:   -74.96598450560597   -8.48557e-07   1.39002e-05 DIIS
   @DF-RHF iter   6:   -74.96598451521781   -9.61184e-09   1.96361e-07 DIIS
   @DF-RHF iter   7:   -74.96598451521950   -1.69109e-12   1.05202e-08 DIIS
   @DF-RHF iter   8:   -74.96598451521946    4.26326e-14   4.51543e-10 DIIS
  Energy and wave function converged.


  ==> Post-Iterations <==

    Orbital Energies [Eh]
    ---------------------

    Doubly Occupied:                                                      

       1Ap   -20.251801     2Ap    -1.257589     3Ap    -0.593858  
       4Ap    -0.459748     1App   -0.392624  

    Virtual:                                                              

       5Ap     0.581838     6Ap     0.692753  

    Final Occupation by Irrep:
             Ap   App 
    DOCC [     4,    1 ]
    NA   [     4,    1 ]
    NB   [     4,    1 ]

  @DF-RHF Final Energy:   -74.96598451521946

   => Energetics <=

    Nuclear Repulsion Energy =              8.9067921862272232
    One-Electron Energy =                -121.8343125975912073
    Two-Electron Energy =                  37.9615358961445253
    Total Energy =                        -74.9659845152194606

Computation Completed


Properties will be evaluated at   0.000000,   0.000000,   0.000000 [a0]

Properties computed using the SCF density matrix


 Multipole Moments:

 ------------------------------------------------------------------------------------
     Multipole            Electronic (a.u.)      Nuclear  (a.u.)        Total (a.u.)
 ------------------------------------------------------------------------------------

 L = 1.  Multiply by 2.5417464519 to convert [e a0] to [Debye]
 Dipole X            :          0.0116953           -0.0266573           -0.0149620
 Dipole Y            :          0.3858401           -1.0580404           -0.6722002
 Dipole Z            :          0.0000000            0.0000000            0.0000000
 Magnitude           :                                                    0.6723667

 ------------------------------------------------------------------------------------

*** tstop() called on LenovoHugo at Fri May 16 13:49:51 2025
Module time:
	user time   =        nan seconds =        nan minutes
	system time =        nan seconds =        nan minutes
	total time  =          0 seconds =       0.00 minutes
Total time:
	user time   =        nan seconds =        nan minutes
	system time =        nan seconds =        nan minutes
	total time  =        456 seconds =       7.60 minutes

*** tstart() called on LenovoHugo
*** at Fri May 16 13:49:51 2025


         ------------------------------------------------------------
                                   SCF GRAD                          
                          Rob Parrish, Justin Turney,                
                       Andy Simmonett, and Alex Sokolov              
         ------------------------------------------------------------

  ==> Geometry <==

    Molecular point group: cs
    Full point group: Cs

    Geometry (in Bohr), charge = 0, multiplicity = 1:

       Center              X                  Y                   Z               Mass       
    ------------   -----------------  -----------------  -----------------  -----------------
         O            0.003386891843     0.134427293467     0.000000000000    15.994914619570
         H           -1.458983152073    -1.035099002974     0.000000000000     1.007825032230
         H            1.405230720731    -1.098359695490     0.000000000000     1.007825032230

  Nuclear repulsion =    8.906792186227223

  ==> Basis Set <==

  Basis Set: STO-3G
    Blend: STO-3G
    Number of shells: 5
    Number of basis functions: 7
    Number of Cartesian functions: 7
    Spherical Harmonics?: true
    Max angular momentum: 1

  ==> DFJKGrad: Density-Fitted SCF Gradients <==

    Gradient:                    1
    J tasked:                  Yes
    K tasked:                  Yes
    wK tasked:                  No
    OpenMP threads:              1
    Integrals threads:           1
    Memory [MiB]:             1430
    Schwarz Cutoff:          1E-12
    Fitting Condition:       1E-10

   => Auxiliary Basis Set <=

  Basis Set: (STO-3G AUX)
    Blend: DEF2-UNIVERSAL-JKFIT
    Number of shells: 37
    Number of basis functions: 113
    Number of Cartesian functions: 133
    Spherical Harmonics?: true
    Max angular momentum: 4


  -Total Gradient:
     Atom            X                  Y                   Z
    ------   -----------------  -----------------  -----------------
       1        0.002999039731    -0.000122353690     0.000000000000
       2       -0.001468547947    -0.001198498159     0.000000000000
       3       -0.001530491784     0.001320851849     0.000000000000


*** tstop() called on LenovoHugo at Fri May 16 13:49:51 2025
Module time:
	user time   =        nan seconds =        nan minutes
	system time =        nan seconds =        nan minutes
	total time  =          0 seconds =       0.00 minutes
Total time:
	user time   =        nan seconds =        nan minutes
	system time =        nan seconds =        nan minutes
	total time  =        456 seconds =       7.60 minutes

    Psi4 stopped on: Friday, 16 May 2025 01:49PM
    Psi4 wall time for execution: 0:00:00.73


    -----------------------------------------------------------------------
          Psi4: An Open-Source Ab Initio Electronic Structure Package
                               Psi4 1.9.1 release

                         Git: Rev {} zzzzzzz 


    D. G. A. Smith, L. A. Burns, A. C. Simmonett, R. M. Parrish,
    M. C. Schieber, R. Galvelis, P. Kraus, H. Kruse, R. Di Remigio,
    A. Alenaizan, A. M. James, S. Lehtola, J. P. Misiewicz, M. Scheurer,
    R. A. Shaw, J. B. Schriber, Y. Xie, Z. L. Glick, D. A. Sirianni,
    J. S. O'Brien, J. M. Waldrop, A. Kumar, E. G. Hohenstein,
    B. P. Pritchard, B. R. Brooks, H. F. Schaefer III, A. Yu. Sokolov,
    K. Patkowski, A. E. DePrince III, U. Bozkaya, R. A. King,
    F. A. Evangelista, J. M. Turney, T. D. Crawford, C. D. Sherrill,
    J. Chem. Phys. 152(18) 184108 (2020). https://doi.org/10.1063/5.0006002

                            Additional Code Authors
    E. T. Seidl, C. L. Janssen, E. F. Valeev, M. L. Leininger,
    J. F. Gonthier, R. M. Richard, H. R. McAlexander, M. Saitow, X. Wang,
    P. Verma, M. H. Lechner, A. Jiang, S. Behnle, A. G. Heide,
    M. F. Herbst, and D. L. Poole

             Previous Authors, Complete List of Code Contributors,
                       and Citations for Specific Modules
    https://github.com/psi4/psi4/blob/master/codemeta.json
    https://github.com/psi4/psi4/graphs/contributors
    http://psicode.org/psi4manual/master/introduction.html#citing-psifour

    -----------------------------------------------------------------------


    Psi4 started on: Friday, 16 May 2025 01:42PM

    Process ID: 25464
    Host:       LenovoHugo
    PSIDATADIR: C:\Users\hugop\anaconda3\envs\ppchem\Library\share\psi4
    Memory:     1.9 GiB
    Threads:    1
    
  ==> Input QCSchema <==

--------------------------------------------------------------------------
{'driver': 'gradient',
 'extras': {'psiapi': True, 'wfn_qcvars_only': True},
 'id': None,
 'keywords': {'PARENT_SYMMETRY': 'Cs(Z)',
              'SCF__D_CONVERGENCE': 1e-08,
              'SCF__E_CONVERGENCE': 1e-08,
              'SCF__INTS_TOLERANCE': 1e-12,
              'function_kwargs': {'write_orbitals': False}},
 'model': {'basis': 'sto-3g', 'method': 'hf'},
 'molecule': {'atom_labels': ['', '', ''],
              'atomic_numbers': [8, 1, 1],
              'extras': {},
              'fix_com': True,
              'fix_orientation': True,
              'fragment_charges': [0.0],
              'fragment_multiplicities': [1],
              'fragments': [[0, 1, 2]],
              'geometry': [0.0029686543668161385, 0.13400905599087046, 0.0, -1.4556642859487314, -1.0317801368493715,
                           0.0, 1.4085495868554057, -1.0950408293657043, 0.0],
              'mass_numbers': [16, 1, 1],
              'masses': [15.99491461957, 1.00782503223, 1.00782503223],
              'molecular_charge': 0.0,
              'molecular_multiplicity': 1,
              'name': 'H2O',
              'provenance': {'creator': 'QCElemental',
                             'routine': 'qcelemental.molparse.from_string',
                             'version': '0.29.0'},
              'real': [True, True, True],
              'schema_name': 'qcschema_molecule',
              'schema_version': 2,
              'symbols': ['O', 'H', 'H'],
              'validated': True},
 'protocols': {'stdout': True},
 'provenance': {'creator': 'QCElemental', 'routine': 'qcelemental.models.results', 'version': '0.29.0'},
 'schema_name': 'qcschema_input',
 'schema_version': 1}
--------------------------------------------------------------------------

Scratch directory: C:\Users\hugop\AppData\Local\Temp/
gradient() will perform analytic gradient computation.
   => Libint2 <=

    Primary   basis highest AM E, G, H:  6, 6, -
    Auxiliary basis highest AM E, G, H:  7, 7, -
    Onebody   basis highest AM E, G, H:  -, -, -
    Solid Harmonics ordering:            Gaussian

*** tstart() called on LenovoHugo
*** at Fri May 16 13:49:52 2025

   => Loading Basis Set <=

    Name: STO-3G
    Role: ORBITAL
    Keyword: BASIS
    atoms 1   entry O          line    81 file C:\Users\hugop\anaconda3\envs\ppchem\Library\share\psi4\basis\sto-3g.gbs 
    atoms 2-3 entry H          line    19 file C:\Users\hugop\anaconda3\envs\ppchem\Library\share\psi4\basis\sto-3g.gbs 


         ---------------------------------------------------------
                                   SCF
               by Justin Turney, Rob Parrish, Andy Simmonett
                          and Daniel G. A. Smith
                              RHF Reference
                        1 Threads,   1907 MiB Core
         ---------------------------------------------------------

  ==> Geometry <==

    Molecular point group: cs
    Full point group: Cs

    Geometry (in Bohr), charge = 0, multiplicity = 1:

       Center              X                  Y                   Z               Mass       
    ------------   -----------------  -----------------  -----------------  -----------------
         O            0.002968654367     0.134009055991     0.000000000000    15.994914619570
         H           -1.455664285949    -1.031780136849     0.000000000000     1.007825032230
         H            1.408549586855    -1.095040829366     0.000000000000     1.007825032230

  Running in cs symmetry.

  Rotational constants: A =     23.44330  B =     14.55514  C =      8.97986 [cm^-1]
  Rotational constants: A = 702812.45780  B = 436352.12253  C = 269209.30741 [MHz]
  Nuclear repulsion =    8.918016251103690

  Charge       = 0
  Multiplicity = 1
  Electrons    = 10
  Nalpha       = 5
  Nbeta        = 5

  ==> Algorithm <==

  SCF Algorithm Type is DF.
  DIIS enabled.
  MOM disabled.
  Fractional occupation disabled.
  Guess Type is SAD.
  Energy threshold   = 1.00e-08
  Density threshold  = 1.00e-08
  Integral threshold = 1.00e-12

  ==> Primary Basis <==

  Basis Set: STO-3G
    Blend: STO-3G
    Number of shells: 5
    Number of basis functions: 7
    Number of Cartesian functions: 7
    Spherical Harmonics?: true
    Max angular momentum: 1

   => Loading Basis Set <=

    Name: (STO-3G AUX)
    Role: JKFIT
    Keyword: DF_BASIS_SCF
    atoms 1   entry O          line   318 file C:\Users\hugop\anaconda3\envs\ppchem\Library\share\psi4\basis\def2-universal-jkfit.gbs 
    atoms 2-3 entry H          line    18 file C:\Users\hugop\anaconda3\envs\ppchem\Library\share\psi4\basis\def2-universal-jkfit.gbs 

  ==> Integral Setup <==

  DFHelper Memory: AOs need 0.000 GiB; user supplied 1.397 GiB. 
  Using in-core AOs.

  ==> MemDFJK: Density-Fitted J/K Matrices <==

    J tasked:                   Yes
    K tasked:                   Yes
    wK tasked:                   No
    OpenMP threads:               1
    Memory [MiB]:              1430
    Algorithm:                 Core
    Schwarz Cutoff:           1E-12
    Mask sparsity (%):       0.0000
    Fitting Condition:        1E-10

   => Auxiliary Basis Set <=

  Basis Set: (STO-3G AUX)
    Blend: DEF2-UNIVERSAL-JKFIT
    Number of shells: 37
    Number of basis functions: 113
    Number of Cartesian functions: 133
    Spherical Harmonics?: true
    Max angular momentum: 4

  Minimum eigenvalue in the overlap matrix is 3.6230638947E-01.
  Reciprocal condition number of the overlap matrix is 1.8997816448E-01.
    Using symmetric orthogonalization.

  ==> Pre-Iterations <==

  SCF Guess: Superposition of Atomic Densities via on-the-fly atomic UHF (no occupation information).

   -------------------------
    Irrep   Nso     Nmo    
   -------------------------
     A'         6       6 
     A"         1       1 
   -------------------------
    Total       7       7
   -------------------------

  ==> Iterations <==

                           Total Energy        Delta E     RMS |[F,P]|

   @DF-RHF iter SAD:   -74.15130305367596   -7.41513e+01   0.00000e+00 
   @DF-RHF iter   1:   -74.91118792491973   -7.59885e-01   4.24712e-02 ADIIS/DIIS
   @DF-RHF iter   2:   -74.96492788064224   -5.37400e-02   6.79847e-03 ADIIS/DIIS
   @DF-RHF iter   3:   -74.96591749832589   -9.89618e-04   1.45730e-03 ADIIS/DIIS
   @DF-RHF iter   4:   -74.96598444203515   -6.69437e-05   1.22884e-04 ADIIS/DIIS
   @DF-RHF iter   5:   -74.96598530334737   -8.61312e-07   1.36933e-05 DIIS
   @DF-RHF iter   6:   -74.96598531260970   -9.26234e-09   2.07496e-07 DIIS
   @DF-RHF iter   7:   -74.96598531261162   -1.91847e-12   8.43089e-10 DIIS
  Energy and wave function converged.


  ==> Post-Iterations <==

    Orbital Energies [Eh]
    ---------------------

    Doubly Occupied:                                                      

       1Ap   -20.251418     2Ap    -1.258017     3Ap    -0.594816  
       4Ap    -0.459491     1App   -0.392566  

    Virtual:                                                              

       5Ap     0.582819     6Ap     0.694664  

    Final Occupation by Irrep:
             Ap   App 
    DOCC [     4,    1 ]
    NA   [     4,    1 ]
    NB   [     4,    1 ]

  @DF-RHF Final Energy:   -74.96598531261162

   => Energetics <=

    Nuclear Repulsion Energy =              8.9180162511036905
    One-Electron Energy =                -121.8553867859989879
    Two-Electron Energy =                  37.9713852222836650
    Total Energy =                        -74.9659853126116218

Computation Completed


Properties will be evaluated at   0.000000,   0.000000,   0.000000 [a0]

Properties computed using the SCF density matrix


 Multipole Moments:

 ------------------------------------------------------------------------------------
     Multipole            Electronic (a.u.)      Nuclear  (a.u.)        Total (a.u.)
 ------------------------------------------------------------------------------------

 L = 1.  Multiply by 2.5417464519 to convert [e a0] to [Debye]
 Dipole X            :          0.0085093           -0.0233655           -0.0148561
 Dipole Y            :          0.3822307           -1.0547485           -0.6725178
 Dipole Z            :          0.0000000            0.0000000            0.0000000
 Magnitude           :                                                    0.6726819

 ------------------------------------------------------------------------------------

*** tstop() called on LenovoHugo at Fri May 16 13:49:52 2025
Module time:
	user time   =        nan seconds =        nan minutes
	system time =        nan seconds =        nan minutes
	total time  =          0 seconds =       0.00 minutes
Total time:
	user time   =        nan seconds =        nan minutes
	system time =        nan seconds =        nan minutes
	total time  =        457 seconds =       7.62 minutes

*** tstart() called on LenovoHugo
*** at Fri May 16 13:49:52 2025


         ------------------------------------------------------------
                                   SCF GRAD                          
                          Rob Parrish, Justin Turney,                
                       Andy Simmonett, and Alex Sokolov              
         ------------------------------------------------------------

  ==> Geometry <==

    Molecular point group: cs
    Full point group: Cs

    Geometry (in Bohr), charge = 0, multiplicity = 1:

       Center              X                  Y                   Z               Mass       
    ------------   -----------------  -----------------  -----------------  -----------------
         O            0.002968654367     0.134009055991     0.000000000000    15.994914619570
         H           -1.455664285949    -1.031780136849     0.000000000000     1.007825032230
         H            1.408549586855    -1.095040829366     0.000000000000     1.007825032230

  Nuclear repulsion =    8.918016251103690

  ==> Basis Set <==

  Basis Set: STO-3G
    Blend: STO-3G
    Number of shells: 5
    Number of basis functions: 7
    Number of Cartesian functions: 7
    Spherical Harmonics?: true
    Max angular momentum: 1

  ==> DFJKGrad: Density-Fitted SCF Gradients <==

    Gradient:                    1
    J tasked:                  Yes
    K tasked:                  Yes
    wK tasked:                  No
    OpenMP threads:              1
    Integrals threads:           1
    Memory [MiB]:             1430
    Schwarz Cutoff:          1E-12
    Fitting Condition:       1E-10

   => Auxiliary Basis Set <=

  Basis Set: (STO-3G AUX)
    Blend: DEF2-UNIVERSAL-JKFIT
    Number of shells: 37
    Number of basis functions: 113
    Number of Cartesian functions: 133
    Spherical Harmonics?: true
    Max angular momentum: 4


  -Total Gradient:
     Atom            X                  Y                   Z
    ------   -----------------  -----------------  -----------------
       1        0.000009520121    -0.002472471052     0.000000000000
       2        0.000879322695     0.001189830951     0.000000000000
       3       -0.000888842816     0.001282640101     0.000000000000


*** tstop() called on LenovoHugo at Fri May 16 13:49:52 2025
Module time:
	user time   =        nan seconds =        nan minutes
	system time =        nan seconds =        nan minutes
	total time  =          0 seconds =       0.00 minutes
Total time:
	user time   =        nan seconds =        nan minutes
	system time =        nan seconds =        nan minutes
	total time  =        457 seconds =       7.62 minutes

    Psi4 stopped on: Friday, 16 May 2025 01:49PM
    Psi4 wall time for execution: 0:00:00.74


    -----------------------------------------------------------------------
          Psi4: An Open-Source Ab Initio Electronic Structure Package
                               Psi4 1.9.1 release

                         Git: Rev {} zzzzzzz 


    D. G. A. Smith, L. A. Burns, A. C. Simmonett, R. M. Parrish,
    M. C. Schieber, R. Galvelis, P. Kraus, H. Kruse, R. Di Remigio,
    A. Alenaizan, A. M. James, S. Lehtola, J. P. Misiewicz, M. Scheurer,
    R. A. Shaw, J. B. Schriber, Y. Xie, Z. L. Glick, D. A. Sirianni,
    J. S. O'Brien, J. M. Waldrop, A. Kumar, E. G. Hohenstein,
    B. P. Pritchard, B. R. Brooks, H. F. Schaefer III, A. Yu. Sokolov,
    K. Patkowski, A. E. DePrince III, U. Bozkaya, R. A. King,
    F. A. Evangelista, J. M. Turney, T. D. Crawford, C. D. Sherrill,
    J. Chem. Phys. 152(18) 184108 (2020). https://doi.org/10.1063/5.0006002

                            Additional Code Authors
    E. T. Seidl, C. L. Janssen, E. F. Valeev, M. L. Leininger,
    J. F. Gonthier, R. M. Richard, H. R. McAlexander, M. Saitow, X. Wang,
    P. Verma, M. H. Lechner, A. Jiang, S. Behnle, A. G. Heide,
    M. F. Herbst, and D. L. Poole

             Previous Authors, Complete List of Code Contributors,
                       and Citations for Specific Modules
    https://github.com/psi4/psi4/blob/master/codemeta.json
    https://github.com/psi4/psi4/graphs/contributors
    http://psicode.org/psi4manual/master/introduction.html#citing-psifour

    -----------------------------------------------------------------------


    Psi4 started on: Friday, 16 May 2025 01:42PM

    Process ID: 25464
    Host:       LenovoHugo
    PSIDATADIR: C:\Users\hugop\anaconda3\envs\ppchem\Library\share\psi4
    Memory:     1.9 GiB
    Threads:    1
    
  ==> Input QCSchema <==

--------------------------------------------------------------------------
{'driver': 'gradient',
 'extras': {'psiapi': True, 'wfn_qcvars_only': True},
 'id': None,
 'keywords': {'PARENT_SYMMETRY': 'Cs(Z)',
              'SCF__D_CONVERGENCE': 1e-08,
              'SCF__E_CONVERGENCE': 1e-08,
              'SCF__INTS_TOLERANCE': 1e-12,
              'function_kwargs': {'write_orbitals': False}},
 'model': {'basis': 'sto-3g', 'method': 'hf'},
 'molecule': {'atom_labels': ['', '', ''],
              'atomic_numbers': [8, 1, 1],
              'extras': {},
              'fix_com': True,
              'fix_orientation': True,
              'fragment_charges': [0.0],
              'fragment_multiplicities': [1],
              'fragments': [[0, 1, 2]],
              'geometry': [0.0029686543668161385, 0.13484553094269194, 0.0, -1.4556642859487314, -1.0384178690984849,
                           0.0, 1.4085495868554057, -1.1016785616148177, 0.0],
              'mass_numbers': [16, 1, 1],
              'masses': [15.99491461957, 1.00782503223, 1.00782503223],
              'molecular_charge': 0.0,
              'molecular_multiplicity': 1,
              'name': 'H2O',
              'provenance': {'creator': 'QCElemental',
                             'routine': 'qcelemental.molparse.from_string',
                             'version': '0.29.0'},
              'real': [True, True, True],
              'schema_name': 'qcschema_molecule',
              'schema_version': 2,
              'symbols': ['O', 'H', 'H'],
              'validated': True},
 'protocols': {'stdout': True},
 'provenance': {'creator': 'QCElemental', 'routine': 'qcelemental.models.results', 'version': '0.29.0'},
 'schema_name': 'qcschema_input',
 'schema_version': 1}
--------------------------------------------------------------------------

Scratch directory: C:\Users\hugop\AppData\Local\Temp/
gradient() will perform analytic gradient computation.
   => Libint2 <=

    Primary   basis highest AM E, G, H:  6, 6, -
    Auxiliary basis highest AM E, G, H:  7, 7, -
    Onebody   basis highest AM E, G, H:  -, -, -
    Solid Harmonics ordering:            Gaussian

*** tstart() called on LenovoHugo
*** at Fri May 16 13:49:52 2025

   => Loading Basis Set <=

    Name: STO-3G
    Role: ORBITAL
    Keyword: BASIS
    atoms 1   entry O          line    81 file C:\Users\hugop\anaconda3\envs\ppchem\Library\share\psi4\basis\sto-3g.gbs 
    atoms 2-3 entry H          line    19 file C:\Users\hugop\anaconda3\envs\ppchem\Library\share\psi4\basis\sto-3g.gbs 


         ---------------------------------------------------------
                                   SCF
               by Justin Turney, Rob Parrish, Andy Simmonett
                          and Daniel G. A. Smith
                              RHF Reference
                        1 Threads,   1907 MiB Core
         ---------------------------------------------------------

  ==> Geometry <==

    Molecular point group: cs
    Full point group: Cs

    Geometry (in Bohr), charge = 0, multiplicity = 1:

       Center              X                  Y                   Z               Mass       
    ------------   -----------------  -----------------  -----------------  -----------------
         O            0.002968654367     0.134845530943     0.000000000000    15.994914619570
         H           -1.455664285949    -1.038417869098     0.000000000000     1.007825032230
         H            1.408549586855    -1.101678561615     0.000000000000     1.007825032230

  Running in cs symmetry.

  Rotational constants: A =     23.15350  B =     14.55514  C =      8.93701 [cm^-1]
  Rotational constants: A = 694124.32978  B = 436352.12188  C = 267924.75306 [MHz]
  Nuclear repulsion =    8.896035809701235

  Charge       = 0
  Multiplicity = 1
  Electrons    = 10
  Nalpha       = 5
  Nbeta        = 5

  ==> Algorithm <==

  SCF Algorithm Type is DF.
  DIIS enabled.
  MOM disabled.
  Fractional occupation disabled.
  Guess Type is SAD.
  Energy threshold   = 1.00e-08
  Density threshold  = 1.00e-08
  Integral threshold = 1.00e-12

  ==> Primary Basis <==

  Basis Set: STO-3G
    Blend: STO-3G
    Number of shells: 5
    Number of basis functions: 7
    Number of Cartesian functions: 7
    Spherical Harmonics?: true
    Max angular momentum: 1

   => Loading Basis Set <=

    Name: (STO-3G AUX)
    Role: JKFIT
    Keyword: DF_BASIS_SCF
    atoms 1   entry O          line   318 file C:\Users\hugop\anaconda3\envs\ppchem\Library\share\psi4\basis\def2-universal-jkfit.gbs 
    atoms 2-3 entry H          line    18 file C:\Users\hugop\anaconda3\envs\ppchem\Library\share\psi4\basis\def2-universal-jkfit.gbs 

  ==> Integral Setup <==

  DFHelper Memory: AOs need 0.000 GiB; user supplied 1.397 GiB. 
  Using in-core AOs.

  ==> MemDFJK: Density-Fitted J/K Matrices <==

    J tasked:                   Yes
    K tasked:                   Yes
    wK tasked:                   No
    OpenMP threads:               1
    Memory [MiB]:              1430
    Algorithm:                 Core
    Schwarz Cutoff:           1E-12
    Mask sparsity (%):       0.0000
    Fitting Condition:        1E-10

   => Auxiliary Basis Set <=

  Basis Set: (STO-3G AUX)
    Blend: DEF2-UNIVERSAL-JKFIT
    Number of shells: 37
    Number of basis functions: 113
    Number of Cartesian functions: 133
    Spherical Harmonics?: true
    Max angular momentum: 4

  Minimum eigenvalue in the overlap matrix is 3.6397965621E-01.
  Reciprocal condition number of the overlap matrix is 1.9104696744E-01.
    Using symmetric orthogonalization.

  ==> Pre-Iterations <==

  SCF Guess: Superposition of Atomic Densities via on-the-fly atomic UHF (no occupation information).

   -------------------------
    Irrep   Nso     Nmo    
   -------------------------
     A'         6       6 
     A"         1       1 
   -------------------------
    Total       7       7
   -------------------------

  ==> Iterations <==

                           Total Energy        Delta E     RMS |[F,P]|

   @DF-RHF iter SAD:   -74.14564978701424   -7.41456e+01   0.00000e+00 
   @DF-RHF iter   1:   -74.91072790262237   -7.65078e-01   4.26083e-02 ADIIS/DIIS
   @DF-RHF iter   2:   -74.96491202873025   -5.41841e-02   6.86356e-03 ADIIS/DIIS
   @DF-RHF iter   3:   -74.96591836149511   -1.00633e-03   1.45734e-03 ADIIS/DIIS
   @DF-RHF iter   4:   -74.96598519165981   -6.68302e-05   1.21023e-04 ADIIS/DIIS
   @DF-RHF iter   5:   -74.96598602811105   -8.36451e-07   1.40995e-05 DIIS
   @DF-RHF iter   6:   -74.96598603806683   -9.95578e-09   1.81872e-07 DIIS
   @DF-RHF iter   7:   -74.96598603806831   -1.47793e-12   7.68408e-10 DIIS
  Energy and wave function converged.


  ==> Post-Iterations <==

    Orbital Energies [Eh]
    ---------------------

    Doubly Occupied:                                                      

       1Ap   -20.252166     2Ap    -1.257175     3Ap    -0.592943  
       4Ap    -0.459993     1App   -0.392677  

    Virtual:                                                              

       5Ap     0.580938     6Ap     0.690884  

    Final Occupation by Irrep:
             Ap   App 
    DOCC [     4,    1 ]
    NA   [     4,    1 ]
    NB   [     4,    1 ]

  @DF-RHF Final Energy:   -74.96598603806831

   => Energetics <=

    Nuclear Repulsion Energy =              8.8960358097012353
    One-Electron Energy =                -121.8141370645343500
    Two-Electron Energy =                  37.9521152167648168
    Total Energy =                        -74.9659860380683085

Computation Completed


Properties will be evaluated at   0.000000,   0.000000,   0.000000 [a0]

Properties computed using the SCF density matrix


 Multipole Moments:

 ------------------------------------------------------------------------------------
     Multipole            Electronic (a.u.)      Nuclear  (a.u.)        Total (a.u.)
 ------------------------------------------------------------------------------------

 L = 1.  Multiply by 2.5417464519 to convert [e a0] to [Debye]
 Dipole X            :          0.0085282           -0.0233655           -0.0148372
 Dipole Y            :          0.3894394           -1.0613322           -0.6718928
 Dipole Z            :          0.0000000            0.0000000            0.0000000
 Magnitude           :                                                    0.6720566

 ------------------------------------------------------------------------------------

*** tstop() called on LenovoHugo at Fri May 16 13:49:53 2025
Module time:
	user time   =        nan seconds =        nan minutes
	system time =        nan seconds =        nan minutes
	total time  =          1 seconds =       0.02 minutes
Total time:
	user time   =        nan seconds =        nan minutes
	system time =        nan seconds =        nan minutes
	total time  =        458 seconds =       7.63 minutes

*** tstart() called on LenovoHugo
*** at Fri May 16 13:49:53 2025


         ------------------------------------------------------------
                                   SCF GRAD                          
                          Rob Parrish, Justin Turney,                
                       Andy Simmonett, and Alex Sokolov              
         ------------------------------------------------------------

  ==> Geometry <==

    Molecular point group: cs
    Full point group: Cs

    Geometry (in Bohr), charge = 0, multiplicity = 1:

       Center              X                  Y                   Z               Mass       
    ------------   -----------------  -----------------  -----------------  -----------------
         O            0.002968654367     0.134845530943     0.000000000000    15.994914619570
         H           -1.455664285949    -1.038417869098     0.000000000000     1.007825032230
         H            1.408549586855    -1.101678561615     0.000000000000     1.007825032230

  Nuclear repulsion =    8.896035809701235

  ==> Basis Set <==

  Basis Set: STO-3G
    Blend: STO-3G
    Number of shells: 5
    Number of basis functions: 7
    Number of Cartesian functions: 7
    Spherical Harmonics?: true
    Max angular momentum: 1

  ==> DFJKGrad: Density-Fitted SCF Gradients <==

    Gradient:                    1
    J tasked:                  Yes
    K tasked:                  Yes
    wK tasked:                  No
    OpenMP threads:              1
    Integrals threads:           1
    Memory [MiB]:             1430
    Schwarz Cutoff:          1E-12
    Fitting Condition:       1E-10

   => Auxiliary Basis Set <=

  Basis Set: (STO-3G AUX)
    Blend: DEF2-UNIVERSAL-JKFIT
    Number of shells: 37
    Number of basis functions: 113
    Number of Cartesian functions: 133
    Spherical Harmonics?: true
    Max angular momentum: 4


  -Total Gradient:
     Atom            X                  Y                   Z
    ------   -----------------  -----------------  -----------------
       1       -0.000018334357     0.002274615645     0.000000000000
       2       -0.000722075783    -0.001092378572     0.000000000000
       3        0.000740410140    -0.001182237073     0.000000000000


*** tstop() called on LenovoHugo at Fri May 16 13:49:53 2025
Module time:
	user time   =        nan seconds =        nan minutes
	system time =        nan seconds =        nan minutes
	total time  =          0 seconds =       0.00 minutes
Total time:
	user time   =        nan seconds =        nan minutes
	system time =        nan seconds =        nan minutes
	total time  =        458 seconds =       7.63 minutes

    Psi4 stopped on: Friday, 16 May 2025 01:49PM
    Psi4 wall time for execution: 0:00:00.74


    -----------------------------------------------------------------------
          Psi4: An Open-Source Ab Initio Electronic Structure Package
                               Psi4 1.9.1 release

                         Git: Rev {} zzzzzzz 


    D. G. A. Smith, L. A. Burns, A. C. Simmonett, R. M. Parrish,
    M. C. Schieber, R. Galvelis, P. Kraus, H. Kruse, R. Di Remigio,
    A. Alenaizan, A. M. James, S. Lehtola, J. P. Misiewicz, M. Scheurer,
    R. A. Shaw, J. B. Schriber, Y. Xie, Z. L. Glick, D. A. Sirianni,
    J. S. O'Brien, J. M. Waldrop, A. Kumar, E. G. Hohenstein,
    B. P. Pritchard, B. R. Brooks, H. F. Schaefer III, A. Yu. Sokolov,
    K. Patkowski, A. E. DePrince III, U. Bozkaya, R. A. King,
    F. A. Evangelista, J. M. Turney, T. D. Crawford, C. D. Sherrill,
    J. Chem. Phys. 152(18) 184108 (2020). https://doi.org/10.1063/5.0006002

                            Additional Code Authors
    E. T. Seidl, C. L. Janssen, E. F. Valeev, M. L. Leininger,
    J. F. Gonthier, R. M. Richard, H. R. McAlexander, M. Saitow, X. Wang,
    P. Verma, M. H. Lechner, A. Jiang, S. Behnle, A. G. Heide,
    M. F. Herbst, and D. L. Poole

             Previous Authors, Complete List of Code Contributors,
                       and Citations for Specific Modules
    https://github.com/psi4/psi4/blob/master/codemeta.json
    https://github.com/psi4/psi4/graphs/contributors
    http://psicode.org/psi4manual/master/introduction.html#citing-psifour

    -----------------------------------------------------------------------


    Psi4 started on: Friday, 16 May 2025 01:42PM

    Process ID: 25464
    Host:       LenovoHugo
    PSIDATADIR: C:\Users\hugop\anaconda3\envs\ppchem\Library\share\psi4
    Memory:     1.9 GiB
    Threads:    1
    
  ==> Input QCSchema <==

--------------------------------------------------------------------------
{'driver': 'gradient',
 'extras': {'psiapi': True, 'wfn_qcvars_only': True},
 'id': None,
 'keywords': {'PARENT_SYMMETRY': 'Cs(Z)',
              'SCF__D_CONVERGENCE': 1e-08,
              'SCF__E_CONVERGENCE': 1e-08,
              'SCF__INTS_TOLERANCE': 1e-12,
              'function_kwargs': {'write_orbitals': False}},
 'model': {'basis': 'sto-3g', 'method': 'hf'},
 'molecule': {'atom_labels': ['', '', ''],
              'atomic_numbers': [8, 1, 1],
              'extras': {},
              'fix_com': True,
              'fix_orientation': True,
              'fragment_charges': [0.0],
              'fragment_multiplicities': [1],
              'fragments': [[0, 1, 2]],
              'geometry': [0.0029686543668161385, 0.1344272934667812, 0.0, -1.4591860676772817, -1.0350990029739282,
                           0.0, 1.4120713685839557, -1.098359695490261, 0.0],
              'mass_numbers': [16, 1, 1],
              'masses': [15.99491461957, 1.00782503223, 1.00782503223],
              'molecular_charge': 0.0,
              'molecular_multiplicity': 1,
              'name': 'H2O',
              'provenance': {'creator': 'QCElemental',
                             'routine': 'qcelemental.molparse.from_string',
                             'version': '0.29.0'},
              'real': [True, True, True],
              'schema_name': 'qcschema_molecule',
              'schema_version': 2,
              'symbols': ['O', 'H', 'H'],
              'validated': True},
 'protocols': {'stdout': True},
 'provenance': {'creator': 'QCElemental', 'routine': 'qcelemental.models.results', 'version': '0.29.0'},
 'schema_name': 'qcschema_input',
 'schema_version': 1}
--------------------------------------------------------------------------

Scratch directory: C:\Users\hugop\AppData\Local\Temp/
gradient() will perform analytic gradient computation.
   => Libint2 <=

    Primary   basis highest AM E, G, H:  6, 6, -
    Auxiliary basis highest AM E, G, H:  7, 7, -
    Onebody   basis highest AM E, G, H:  -, -, -
    Solid Harmonics ordering:            Gaussian

*** tstart() called on LenovoHugo
*** at Fri May 16 13:49:53 2025

   => Loading Basis Set <=

    Name: STO-3G
    Role: ORBITAL
    Keyword: BASIS
    atoms 1   entry O          line    81 file C:\Users\hugop\anaconda3\envs\ppchem\Library\share\psi4\basis\sto-3g.gbs 
    atoms 2-3 entry H          line    19 file C:\Users\hugop\anaconda3\envs\ppchem\Library\share\psi4\basis\sto-3g.gbs 


         ---------------------------------------------------------
                                   SCF
               by Justin Turney, Rob Parrish, Andy Simmonett
                          and Daniel G. A. Smith
                              RHF Reference
                        1 Threads,   1907 MiB Core
         ---------------------------------------------------------

  ==> Geometry <==

    Molecular point group: cs
    Full point group: Cs

    Geometry (in Bohr), charge = 0, multiplicity = 1:

       Center              X                  Y                   Z               Mass       
    ------------   -----------------  -----------------  -----------------  -----------------
         O            0.002968654367     0.134427293467     0.000000000000    15.994914619570
         H           -1.459186067677    -1.035099002974     0.000000000000     1.007825032230
         H            1.412071368584    -1.098359695490     0.000000000000     1.007825032230

  Running in cs symmetry.

  Rotational constants: A =     23.29772  B =     14.48385  C =      8.93136 [cm^-1]
  Rotational constants: A = 698448.12986  B = 434214.93144  C = 267755.36096 [MHz]
  Nuclear repulsion =    8.893829253020254

  Charge       = 0
  Multiplicity = 1
  Electrons    = 10
  Nalpha       = 5
  Nbeta        = 5

  ==> Algorithm <==

  SCF Algorithm Type is DF.
  DIIS enabled.
  MOM disabled.
  Fractional occupation disabled.
  Guess Type is SAD.
  Energy threshold   = 1.00e-08
  Density threshold  = 1.00e-08
  Integral threshold = 1.00e-12

  ==> Primary Basis <==

  Basis Set: STO-3G
    Blend: STO-3G
    Number of shells: 5
    Number of basis functions: 7
    Number of Cartesian functions: 7
    Spherical Harmonics?: true
    Max angular momentum: 1

   => Loading Basis Set <=

    Name: (STO-3G AUX)
    Role: JKFIT
    Keyword: DF_BASIS_SCF
    atoms 1   entry O          line   318 file C:\Users\hugop\anaconda3\envs\ppchem\Library\share\psi4\basis\def2-universal-jkfit.gbs 
    atoms 2-3 entry H          line    18 file C:\Users\hugop\anaconda3\envs\ppchem\Library\share\psi4\basis\def2-universal-jkfit.gbs 

  ==> Integral Setup <==

  DFHelper Memory: AOs need 0.000 GiB; user supplied 1.397 GiB. 
  Using in-core AOs.

  ==> MemDFJK: Density-Fitted J/K Matrices <==

    J tasked:                   Yes
    K tasked:                   Yes
    wK tasked:                   No
    OpenMP threads:               1
    Memory [MiB]:              1430
    Algorithm:                 Core
    Schwarz Cutoff:           1E-12
    Mask sparsity (%):       0.0000
    Fitting Condition:        1E-10

   => Auxiliary Basis Set <=

  Basis Set: (STO-3G AUX)
    Blend: DEF2-UNIVERSAL-JKFIT
    Number of shells: 37
    Number of basis functions: 113
    Number of Cartesian functions: 133
    Spherical Harmonics?: true
    Max angular momentum: 4

  Minimum eigenvalue in the overlap matrix is 3.6407422815E-01.
  Reciprocal condition number of the overlap matrix is 1.9123229521E-01.
    Using symmetric orthogonalization.

  ==> Pre-Iterations <==

  SCF Guess: Superposition of Atomic Densities via on-the-fly atomic UHF (no occupation information).

   -------------------------
    Irrep   Nso     Nmo    
   -------------------------
     A'         6       6 
     A"         1       1 
   -------------------------
    Total       7       7
   -------------------------

  ==> Iterations <==

                           Total Energy        Delta E     RMS |[F,P]|

   @DF-RHF iter SAD:   -74.14504919729669   -7.41450e+01   0.00000e+00 
   @DF-RHF iter   1:   -74.91083746322917   -7.65788e-01   4.25623e-02 ADIIS/DIIS
   @DF-RHF iter   2:   -74.96491198003596   -5.40745e-02   6.85083e-03 ADIIS/DIIS
   @DF-RHF iter   3:   -74.96591652533732   -1.00455e-03   1.46047e-03 ADIIS/DIIS
   @DF-RHF iter   4:   -74.96598385694013   -6.73316e-05   1.22962e-04 ADIIS/DIIS
   @DF-RHF iter   5:   -74.96598472184144   -8.64901e-07   1.40825e-05 DIIS
   @DF-RHF iter   6:   -74.96598473176688   -9.92544e-09   1.85294e-07 DIIS
   @DF-RHF iter   7:   -74.96598473176832   -1.43530e-12   7.77091e-10 DIIS
  Energy and wave function converged.


  ==> Post-Iterations <==

    Orbital Energies [Eh]
    ---------------------

    Doubly Occupied:                                                      

       1Ap   -20.251820     2Ap    -1.256768     3Ap    -0.593409  
       4Ap    -0.459244     1App   -0.392463  

    Virtual:                                                              

       5Ap     0.580316     6Ap     0.691527  

    Final Occupation by Irrep:
             Ap   App 
    DOCC [     4,    1 ]
    NA   [     4,    1 ]
    NB   [     4,    1 ]

  @DF-RHF Final Energy:   -74.96598473176832

   => Energetics <=

    Nuclear Repulsion Energy =              8.8938292530202538
    One-Electron Energy =                -121.8122189716951169
    Two-Electron Energy =                  37.9524049869065507
    Total Energy =                        -74.9659847317683159

Computation Completed


Properties will be evaluated at   0.000000,   0.000000,   0.000000 [a0]

Properties computed using the SCF density matrix


 Multipole Moments:

 ------------------------------------------------------------------------------------
     Multipole            Electronic (a.u.)      Nuclear  (a.u.)        Total (a.u.)
 ------------------------------------------------------------------------------------

 L = 1.  Multiply by 2.5417464519 to convert [e a0] to [Debye]
 Dipole X            :          0.0085776           -0.0233655           -0.0147879
 Dipole Y            :          0.3869366           -1.0580404           -0.6711037
 Dipole Z            :          0.0000000            0.0000000            0.0000000
 Magnitude           :                                                    0.6712666

 ------------------------------------------------------------------------------------

*** tstop() called on LenovoHugo at Fri May 16 13:49:54 2025
Module time:
	user time   =        nan seconds =        nan minutes
	system time =        nan seconds =        nan minutes
	total time  =          1 seconds =       0.02 minutes
Total time:
	user time   =        nan seconds =        nan minutes
	system time =        nan seconds =        nan minutes
	total time  =        459 seconds =       7.65 minutes

*** tstart() called on LenovoHugo
*** at Fri May 16 13:49:54 2025


         ------------------------------------------------------------
                                   SCF GRAD                          
                          Rob Parrish, Justin Turney,                
                       Andy Simmonett, and Alex Sokolov              
         ------------------------------------------------------------

  ==> Geometry <==

    Molecular point group: cs
    Full point group: Cs

    Geometry (in Bohr), charge = 0, multiplicity = 1:

       Center              X                  Y                   Z               Mass       
    ------------   -----------------  -----------------  -----------------  -----------------
         O            0.002968654367     0.134427293467     0.000000000000    15.994914619570
         H           -1.459186067677    -1.035099002974     0.000000000000     1.007825032230
         H            1.412071368584    -1.098359695490     0.000000000000     1.007825032230

[...]

    Process ID: 25464
    Host:       LenovoHugo
    PSIDATADIR: C:\Users\hugop\anaconda3\envs\ppchem\Library\share\psi4
    Memory:     1.9 GiB
    Threads:    1
    
  ==> Input QCSchema <==

--------------------------------------------------------------------------
{'driver': 'gradient',
 'extras': {'psiapi': True, 'wfn_qcvars_only': True},
 'id': None,
 'keywords': {'PARENT_SYMMETRY': 'Cs(Z)',
              'SCF__D_CONVERGENCE': 1e-08,
              'SCF__E_CONVERGENCE': 1e-08,
              'SCF__INTS_TOLERANCE': 1e-12,
              'function_kwargs': {'write_orbitals': False}},
 'model': {'basis': 'sto-3g', 'method': 'hf'},
 'molecule': {'atom_labels': ['', '', ''],
              'atomic_numbers': [8, 1, 1],
              'extras': {},
              'fix_com': True,
              'fix_orientation': True,
              'fragment_charges': [0.0],
              'fragment_multiplicities': [1],
              'fragments': [[0, 1, 2]],
              'geometry': [0.0029686543668161385, 0.1344272934667812, 0.0, -1.4556642859487314, -1.0350990029739282,
                           -0.00352178172855016, 1.4085495868554057, -1.098359695490261, 0.003521781728550162],
              'mass_numbers': [16, 1, 1],
              'masses': [15.99491461957, 1.00782503223, 1.00782503223],
              'molecular_charge': 0.0,
              'molecular_multiplicity': 1,
              'name': 'H2O',
              'provenance': {'creator': 'QCElemental',
                             'routine': 'qcelemental.molparse.from_string',
                             'version': '0.29.0'},
              'real': [True, True, True],
              'schema_name': 'qcschema_molecule',
              'schema_version': 2,
              'symbols': ['O', 'H', 'H'],
              'validated': True},
 'protocols': {'stdout': True},
 'provenance': {'creator': 'QCElemental', 'routine': 'qcelemental.models.results', 'version': '0.29.0'},
 'schema_name': 'qcschema_input',
 'schema_version': 1}
--------------------------------------------------------------------------

Scratch directory: C:\Users\hugop\AppData\Local\Temp/
gradient() will perform analytic gradient computation.
   => Libint2 <=

    Primary   basis highest AM E, G, H:  6, 6, -
    Auxiliary basis highest AM E, G, H:  7, 7, -
    Onebody   basis highest AM E, G, H:  -, -, -
    Solid Harmonics ordering:            Gaussian

*** tstart() called on LenovoHugo
*** at Fri May 16 13:49:57 2025

   => Loading Basis Set <=

    Name: STO-3G
    Role: ORBITAL
    Keyword: BASIS
    atoms 1   entry O          line    81 file C:\Users\hugop\anaconda3\envs\ppchem\Library\share\psi4\basis\sto-3g.gbs 
    atoms 2-3 entry H          line    19 file C:\Users\hugop\anaconda3\envs\ppchem\Library\share\psi4\basis\sto-3g.gbs 


         ---------------------------------------------------------
                                   SCF
               by Justin Turney, Rob Parrish, Andy Simmonett
                          and Daniel G. A. Smith
                              RHF Reference
                        1 Threads,   1907 MiB Core
         ---------------------------------------------------------

  ==> Geometry <==

    Molecular point group: c1
    Full point group: C1

    Geometry (in Bohr), charge = 0, multiplicity = 1:

       Center              X                  Y                   Z               Mass       
    ------------   -----------------  -----------------  -----------------  -----------------
         O            0.002968654367     0.134427293467     0.000000000000    15.994914619570
         H           -1.455664285949    -1.035099002974    -0.003521781729     1.007825032230
         H            1.408549586855    -1.098359695490     0.003521781729     1.007825032230

  Running in c1 symmetry.

  Rotational constants: A =     23.29772  B =     14.55505  C =      8.95838 [cm^-1]
  Rotational constants: A = 698448.12502  B = 436349.48811  C = 268565.49423 [MHz]
  Nuclear repulsion =    8.907005703598413

  Charge       = 0
  Multiplicity = 1
  Electrons    = 10
  Nalpha       = 5
  Nbeta        = 5

  ==> Algorithm <==

  SCF Algorithm Type is DF.
  DIIS enabled.
  MOM disabled.
  Fractional occupation disabled.
  Guess Type is SAD.
  Energy threshold   = 1.00e-08
  Density threshold  = 1.00e-08
  Integral threshold = 1.00e-12

  ==> Primary Basis <==

  Basis Set: STO-3G
    Blend: STO-3G
    Number of shells: 5
    Number of basis functions: 7
    Number of Cartesian functions: 7
    Spherical Harmonics?: true
    Max angular momentum: 1

   => Loading Basis Set <=

    Name: (STO-3G AUX)
    Role: JKFIT
    Keyword: DF_BASIS_SCF
    atoms 1   entry O          line   318 file C:\Users\hugop\anaconda3\envs\ppchem\Library\share\psi4\basis\def2-universal-jkfit.gbs 
    atoms 2-3 entry H          line    18 file C:\Users\hugop\anaconda3\envs\ppchem\Library\share\psi4\basis\def2-universal-jkfit.gbs 

  ==> Integral Setup <==

  DFHelper Memory: AOs need 0.000 GiB; user supplied 1.397 GiB. 
  Using in-core AOs.

  ==> MemDFJK: Density-Fitted J/K Matrices <==

    J tasked:                   Yes
    K tasked:                   Yes
    wK tasked:                   No
    OpenMP threads:               1
    Memory [MiB]:              1430
    Algorithm:                 Core
    Schwarz Cutoff:           1E-12
    Mask sparsity (%):       0.0000
    Fitting Condition:        1E-10

   => Auxiliary Basis Set <=

  Basis Set: (STO-3G AUX)
    Blend: DEF2-UNIVERSAL-JKFIT
    Number of shells: 37
    Number of basis functions: 113
    Number of Cartesian functions: 133
    Spherical Harmonics?: true
    Max angular momentum: 4

  Minimum eigenvalue in the overlap matrix is 3.6314305025E-01.
  Reciprocal condition number of the overlap matrix is 1.9051247911E-01.
    Using symmetric orthogonalization.

  ==> Pre-Iterations <==

  SCF Guess: Superposition of Atomic Densities via on-the-fly atomic UHF (no occupation information).

   -------------------------
    Irrep   Nso     Nmo    
   -------------------------
     A          7       7 
   -------------------------
    Total       7       7
   -------------------------

  ==> Iterations <==

                           Total Energy        Delta E     RMS |[F,P]|

   @DF-RHF iter SAD:   -74.14847131748618   -7.41485e+01   0.00000e+00 
   @DF-RHF iter   1:   -74.91096246966293   -7.62491e-01   3.69656e-02 ADIIS/DIIS
   @DF-RHF iter   2:   -74.96492451069840   -5.39620e-02   5.93571e-03 ADIIS/DIIS
   @DF-RHF iter   3:   -74.96592218695073   -9.97676e-04   1.26860e-03 ADIIS/DIIS
   @DF-RHF iter   4:   -74.96598925737992   -6.70704e-05   1.05731e-04 ADIIS/DIIS
   @DF-RHF iter   5:   -74.96599010155009   -8.44170e-07   1.20342e-05 DIIS
   @DF-RHF iter   6:   -74.96599011108349   -9.53339e-09   1.69478e-07 DIIS
   @DF-RHF iter   7:   -74.96599011108512   -1.63425e-12   6.75115e-10 DIIS
  Energy and wave function converged.


  ==> Post-Iterations <==

    Orbital Energies [Eh]
    ---------------------

    Doubly Occupied:                                                      

       1A    -20.251792     2A     -1.257595     3A     -0.593879  
       4A     -0.459742     5A     -0.392622  

    Virtual:                                                              

       6A      0.581878     7A      0.692770  

    Final Occupation by Irrep:
              A 
    DOCC [     5 ]
    NA   [     5 ]
    NB   [     5 ]

  @DF-RHF Final Energy:   -74.96599011108512

   => Energetics <=

    Nuclear Repulsion Energy =              8.9070057035984131
    One-Electron Energy =                -121.8347304557483852
    Two-Electron Energy =                  37.9617346410648580
    Total Energy =                        -74.9659901110851195

Computation Completed


Properties will be evaluated at   0.000000,   0.000000,   0.000000 [a0]

Properties computed using the SCF density matrix


 Multipole Moments:

 ------------------------------------------------------------------------------------
     Multipole            Electronic (a.u.)      Nuclear  (a.u.)        Total (a.u.)
 ------------------------------------------------------------------------------------

 L = 1.  Multiply by 2.5417464519 to convert [e a0] to [Debye]
 Dipole X            :          0.0085188           -0.0233655           -0.0148466
 Dipole Y            :          0.3858335           -1.0580404           -0.6722068
 Dipole Z            :         -0.0000000            0.0000000           -0.0000000
 Magnitude           :                                                    0.6723707

 ------------------------------------------------------------------------------------

*** tstop() called on LenovoHugo at Fri May 16 13:49:58 2025
Module time:
	user time   =        nan seconds =        nan minutes
	system time =        nan seconds =        nan minutes
	total time  =          1 seconds =       0.02 minutes
Total time:
	user time   =        nan seconds =        nan minutes
	system time =        nan seconds =        nan minutes
	total time  =        463 seconds =       7.72 minutes

*** tstart() called on LenovoHugo
*** at Fri May 16 13:49:58 2025


         ------------------------------------------------------------
                                   SCF GRAD                          
                          Rob Parrish, Justin Turney,                
                       Andy Simmonett, and Alex Sokolov              
         ------------------------------------------------------------

  ==> Geometry <==

    Molecular point group: c1
    Full point group: C1

    Geometry (in Bohr), charge = 0, multiplicity = 1:

       Center              X                  Y                   Z               Mass       
    ------------   -----------------  -----------------  -----------------  -----------------
         O            0.002968654367     0.134427293467     0.000000000000    15.994914619570
         H           -1.455664285949    -1.035099002974    -0.003521781729     1.007825032230
         H            1.408549586855    -1.098359695490     0.003521781729     1.007825032230

  Nuclear repulsion =    8.907005703598413

  ==> Basis Set <==

  Basis Set: STO-3G
    Blend: STO-3G
    Number of shells: 5
    Number of basis functions: 7
    Number of Cartesian functions: 7
    Spherical Harmonics?: true
    Max angular momentum: 1

  ==> DFJKGrad: Density-Fitted SCF Gradients <==

    Gradient:                    1
    J tasked:                  Yes
    K tasked:                  Yes
    wK tasked:                  No
    OpenMP threads:              1
    Integrals threads:           1
    Memory [MiB]:             1430
    Schwarz Cutoff:          1E-12
    Fitting Condition:       1E-10

   => Auxiliary Basis Set <=

  Basis Set: (STO-3G AUX)
    Blend: DEF2-UNIVERSAL-JKFIT
    Number of shells: 37
    Number of basis functions: 113
    Number of Cartesian functions: 133
    Spherical Harmonics?: true
    Max angular momentum: 4


  -Total Gradient:
     Atom            X                  Y                   Z
    ------   -----------------  -----------------  -----------------
       1       -0.000004847886    -0.000094258753    -0.000000006799
       2        0.000072812531     0.000046734838     0.000000176434
       3       -0.000067964645     0.000047523915    -0.000000169634


*** tstop() called on LenovoHugo at Fri May 16 13:49:58 2025
Module time:
	user time   =        nan seconds =        nan minutes
	system time =        nan seconds =        nan minutes
	total time  =          0 seconds =       0.00 minutes
Total time:
	user time   =        nan seconds =        nan minutes
	system time =        nan seconds =        nan minutes
	total time  =        463 seconds =       7.72 minutes

    Psi4 stopped on: Friday, 16 May 2025 01:49PM
    Psi4 wall time for execution: 0:00:00.73


  //>>>>>>>>>>>>>>>>>>>>>>>>>>>>>>>>>>>//
  //      FiniteDifference Results     //
  //<<<<<<<<<<<<<<<<<<<<<<<<<<<<<<<<<<<//

  Computing second-derivative from gradients using projected, 
  symmetry-adapted, cartesian coordinates.

  11 gradients passed in, including the reference geometry.
  Generating complete list of displacements from unique ones.

    Operation 2 takes plus displacements of irrep A" to minus ones.

-------------------------------------------------------------


  ==> Harmonic Vibrational Analysis <==

  non-mass-weighted Hessian:       Symmetric? True   Hermitian? True   Lin Dep Dim?  3 (0)
  projection of translations (True) and rotations (True) removed 6 degrees of freedom (6)
  total projector:                 Symmetric? True   Hermitian? True   Lin Dep Dim?  6 (6)
  mass-weighted Hessian:           Symmetric? True   Hermitian? True   Lin Dep Dim?  3 (0)
  pre-proj  low-frequency mode:    0.0000i [cm^-1]
  pre-proj  low-frequency mode:    0.0000i [cm^-1]
  pre-proj  low-frequency mode:    0.0000i [cm^-1]
  pre-proj  low-frequency mode:    0.0000i [cm^-1]
  pre-proj  low-frequency mode:    0.0000  [cm^-1]
  pre-proj  low-frequency mode:    0.0001  [cm^-1]
  pre-proj  all modes:['37.0106i' '35.9562i' '33.6483i' '0.0000i' '0.0000' '0.0001' '2170.1775'
 '4140.6269' '4391.6612']
  projected mass-weighted Hessian: Symmetric? True   Hermitian? True   Lin Dep Dim?  6 (6)
  post-proj low-frequency mode:    0.0000i [cm^-1] (TR)
  post-proj low-frequency mode:    0.0000i [cm^-1] (TR)
  post-proj low-frequency mode:    0.0000i [cm^-1] (TR)
  post-proj low-frequency mode:    0.0000i [cm^-1] (TR)
  post-proj low-frequency mode:    0.0000i [cm^-1] (TR)
  post-proj low-frequency mode:    0.0000  [cm^-1] (TR)
  post-proj  all modes:['0.0000i' '0.0000i' '0.0000i' '0.0000i' '0.0000i' '0.0000' '2170.1775'
 '4140.6269' '4391.6612']

  Vibration                       7                   8                   9           
  Freq [cm^-1]                2170.1775           4140.6269           4391.6612       
  Irrep                           Ap                  Ap                  Ap          
  Reduced mass [u]              1.0785              1.0491              1.0774        
  Force const [mDyne/A]         2.9927             10.5973             12.2425        
  Turning point v=0 [a0]        0.2268              0.1665              0.1595        
  RMS dev v=0 [a0 u^1/2]        0.1666              0.1206              0.1171        
  IR activ [km/mol]             7.2315             44.3421             30.0466        
  Char temp [K]               3122.4023           5957.4402           6318.6227       
  ----------------------------------------------------------------------------------
      1   O               -0.00 -0.07  0.00   -0.00 -0.05  0.00   -0.07  0.00  0.00   
      2   H               -0.44  0.55 -0.00    0.58  0.40 -0.00    0.55  0.44 -0.00   
      3   H                0.46  0.53  0.00   -0.56  0.43  0.00    0.53 -0.47  0.00   

  ==> Thermochemistry Components <==

  Entropy, S
    Electronic S                             0.000 [cal/(mol K)]        0.000 [J/(mol K)]       0.00000000 [mEh/K] (multiplicity = 1)
    Translational S                         34.608 [cal/(mol K)]      144.801 [J/(mol K)]       0.05515177 [mEh/K] (mol. weight = 18.0106 [u], P = 101325.00 [Pa])
    Rotational S                            12.050 [cal/(mol K)]       50.416 [J/(mol K)]       0.01920234 [mEh/K] (symmetry no. = 1)
    Vibrational S                            0.001 [cal/(mol K)]        0.003 [J/(mol K)]       0.00000103 [mEh/K]
  Total S                                   46.659 [cal/(mol K)]      195.219 [J/(mol K)]       0.07435515 [mEh/K]
  Correction S                               0.000 [cal/(mol K)]        0.000 [J/(mol K)]       0.00000000 [mEh/K]

  Constant volume heat capacity, Cv
    Electronic Cv                            0.000 [cal/(mol K)]        0.000 [J/(mol K)]       0.00000000 [mEh/K]
    Translational Cv                         2.981 [cal/(mol K)]       12.472 [J/(mol K)]       0.00475022 [mEh/K]
    Rotational Cv                            2.981 [cal/(mol K)]       12.472 [J/(mol K)]       0.00475022 [mEh/K]
    Vibrational Cv                           0.006 [cal/(mol K)]        0.026 [J/(mol K)]       0.00000983 [mEh/K]
  Total Cv                                   5.968 [cal/(mol K)]       24.969 [J/(mol K)]       0.00951027 [mEh/K]
  Correction Cv                              0.000 [cal/(mol K)]        0.000 [J/(mol K)]       0.00000000 [mEh/K]

  Constant pressure heat capacity, Cp
    Electronic Cp                            0.000 [cal/(mol K)]        0.000 [J/(mol K)]       0.00000000 [mEh/K]
    Translational Cp                         4.968 [cal/(mol K)]       20.786 [J/(mol K)]       0.00791703 [mEh/K]
    Rotational Cp                            2.981 [cal/(mol K)]       12.472 [J/(mol K)]       0.00475022 [mEh/K]
    Vibrational Cp                           0.006 [cal/(mol K)]        0.026 [J/(mol K)]       0.00000983 [mEh/K]
  Total Cp                                   7.955 [cal/(mol K)]       33.284 [J/(mol K)]       0.01267708 [mEh/K]
  Correction Cp                              0.000 [cal/(mol K)]        0.000 [J/(mol K)]       0.00000000 [mEh/K]

  ==> Thermochemistry Energy Analysis <==

  Raw electronic energy, E_e
  Total E_e, Electronic energy at well bottom                                           -74.96599011 [Eh]

  Zero-point vibrational energy, ZPVE = Sum_i omega_i / 2,  E_0 = E_e + ZPVE
    Vibrational ZPVE                        15.300 [kcal/mol]       64.015 [kJ/mol]       0.02438201 [Eh]        5351.233 [cm^-1]
  Correction ZPVE to E_e                    15.300 [kcal/mol]       64.015 [kJ/mol]       0.02438201 [Eh]        5351.233 [cm^-1]
  Total E_0, Enthalpy at 0 [K]                                                          -74.94160810 [Eh]
  *** Absolute enthalpy, not an enthalpy of formation ***

  Thermal (internal) energy, E (includes ZPVE and finite-temperature corrections)
    Electronic contrib to E beyond E_e       0.000 [kcal/mol]        0.000 [kJ/mol]       0.00000000 [Eh]
    Translational contrib to E               0.889 [kcal/mol]        3.718 [kJ/mol]       0.00141628 [Eh]
    Rotational contrib to E                  0.889 [kcal/mol]        3.718 [kJ/mol]       0.00141628 [Eh]
    Vibrational contrib to E                15.300 [kcal/mol]       64.016 [kJ/mol]       0.02438229 [Eh]
  Correction E                              17.078 [kcal/mol]       71.453 [kJ/mol]       0.02721484 [Eh]
  Total E, Thermal (internal) energy at  298.15 [K]                                     -74.93877527 [Eh]

  Enthalpy, H_trans = E_trans + k_B * T = E_trans + P * V
    Electronic contrib to H beyond E_e       0.000 [kcal/mol]        0.000 [kJ/mol]       0.00000000 [Eh]
    Translational contrib to H               1.481 [kcal/mol]        6.197 [kJ/mol]       0.00236046 [Eh]
    Rotational contrib to H                  0.889 [kcal/mol]        3.718 [kJ/mol]       0.00141628 [Eh]
    Vibrational contrib to H                15.300 [kcal/mol]       64.016 [kJ/mol]       0.02438229 [Eh]
  Correction H                              17.670 [kcal/mol]       73.932 [kJ/mol]       0.02815903 [Eh]
  Total H, Enthalpy at  298.15 [K]                                                      -74.93783108 [Eh]
  *** Absolute enthalpy, not an enthalpy of formation ***

  Gibbs free energy, G = H - T * S
    Electronic contrib to G beyond E_e       0.000 [kcal/mol]        0.000 [kJ/mol]       0.00000000 [Eh]
    Translational contrib to G              -8.837 [kcal/mol]      -36.975 [kJ/mol]      -0.01408304 [Eh]
    Rotational contrib to G                 -2.704 [kcal/mol]      -11.313 [kJ/mol]      -0.00430890 [Eh]
    Vibrational contrib to G                15.300 [kcal/mol]       64.015 [kJ/mol]       0.02438198 [Eh]
  Correction G                               3.759 [kcal/mol]       15.727 [kJ/mol]       0.00599004 [Eh]
  Total G, Gibbs energy at  298.15 [K]                                                  -74.96000007 [Eh]
  *** Absolute Gibbs energy, not a free energy of formation ***

