
Host: LenovoHugo

Timers On : Tue May 13 16:41:35 2025
Timers Off: Tue May 13 16:46:22 2025

Wall Time:      287.00 seconds

                                                       Time (seconds)
Module                                       User      System        Wall        Calls

--------------------------------------------------------------------------------------

**************************************************************************************
